                         Program Version 5.0.4 -  RELEASE  -
|  1> # ORCA 5.0.4 - /users/bwb16179/postgrad/2024_06/pKa_Reviewer_Comments/Gas_Z=1/3_prot.inp # write input file
|  2> # Basic Mode
|  3> #
|  4> ! Opt Freq wB97X Def2-TZVP D4 SlowConv TightSCF Defgrid2 Def2/J RIJCOSX
|  5>
|  6> %PAL NPROCS 4 END
|  7>
|  8> %maxcore 4500
|  9>
| 10> %geom
| 11> Maxiter 150
| 12> END
| 13>
| 14> * xyzfile 1 1 3_prot.xyz
| 15>
| 16>                          ****END OF INPUT****
 Total Charge           Charge          ....    1
 Multiplicity           Mult            ....    1
 Number of Electrons    NEL             ....   84
Dispersion correction           -0.002507232
FINAL SINGLE POINT ENERGY     -1224.462856631797
Dispersion correction            ... Starting D4
Dispersion correction           -0.002511773
FINAL SINGLE POINT ENERGY     -1224.463510086538
Dispersion correction            ... Starting D4
Dispersion correction           -0.002512166
FINAL SINGLE POINT ENERGY     -1224.463518445043
Dispersion correction            ... Starting D4
                    ***********************HURRAY********************

CARTESIAN COORDINATES (ANGSTROEM)
---------------------------------
  N      0.140426    1.099552    1.005783
  N     -0.159615   -1.044401    1.035700
  C      0.047524    0.687448   -0.306275
  C     -0.138888   -0.659184   -0.287265
  C      0.011636    0.035224    1.786573
  Cl     0.156437    1.742252   -1.605638
  Cl    -0.319416   -1.742248   -1.554924
  C      0.343062    2.475869    1.453468
  C     -0.337101   -2.411992    1.519381
  H      0.411402    2.477897    2.538383
  H     -0.371354   -2.391323    2.605642
  H     -0.497892    3.089055    1.135740
  H     -1.269997   -2.813397    1.129493
  H      0.497387   -3.026490    1.187325
  H      1.265690    2.863237    1.026545
  H      0.041540    0.046268    2.864568

 Multiplicity           Mult            ....    1
 Number of Electrons    NEL             ....   84
 Basis Dimension        Dim             ....  333

ORBITAL ENERGIES
----------------

  NO   OCC          E(Eh)            E(eV)
   0   2.0000    -101.678645     -2766.8166
   1   2.0000    -101.678613     -2766.8157
   2   2.0000     -14.672027      -399.2462
   3   2.0000     -14.671976      -399.2448
   4   2.0000     -10.538397      -286.7644
   5   2.0000     -10.534397      -286.6555
   6   2.0000     -10.533694      -286.6364
   7   2.0000     -10.470597      -284.9194
   8   2.0000     -10.470575      -284.9188
   9   2.0000      -9.727585      -264.7010
  10   2.0000      -9.727547      -264.7000
  11   2.0000      -7.489579      -203.8018
  12   2.0000      -7.489543      -203.8008
  13   2.0000      -7.478836      -203.5095
  14   2.0000      -7.478798      -203.5084
  15   2.0000      -7.478658      -203.5046
  16   2.0000      -7.478622      -203.5037
  17   2.0000      -1.400154       -38.1001
  18   2.0000      -1.279051       -34.8048
  19   2.0000      -1.201529       -32.6953
  20   2.0000      -1.161313       -31.6009
  21   2.0000      -1.096944       -29.8494
  22   2.0000      -1.048679       -28.5360
  23   2.0000      -1.006507       -27.3884
  24   2.0000      -0.921736       -25.0817
  25   2.0000      -0.915947       -24.9242
  26   2.0000      -0.839950       -22.8562
  27   2.0000      -0.817170       -22.2363
  28   2.0000      -0.774975       -21.0882
  29   2.0000      -0.762673       -20.7534
  30   2.0000      -0.747149       -20.3310
  31   2.0000      -0.744005       -20.2454
  32   2.0000      -0.732459       -19.9312
  33   2.0000      -0.695159       -18.9162
  34   2.0000      -0.692082       -18.8325
  35   2.0000      -0.685016       -18.6402
  36   2.0000      -0.644423       -17.5356
  37   2.0000      -0.631012       -17.1707
  38   2.0000      -0.598555       -16.2875
  39   2.0000      -0.598233       -16.2788
  40   2.0000      -0.570914       -15.5354
  41   2.0000      -0.501992       -13.6599
  42   0.0000      -0.110234        -2.9996
  43   0.0000      -0.076667        -2.0862
  44   0.0000      -0.049678        -1.3518
  45   0.0000      -0.030547        -0.8312
  46   0.0000      -0.017915        -0.4875

MULLIKEN ATOMIC CHARGES
-----------------------
   0 N :   -0.073275
   1 N :   -0.073009
   2 C :    0.036708
   3 C :    0.035845
   4 C :    0.120282
   5 Cl:    0.098503
   6 Cl:    0.098413
   7 C :   -0.298945
   8 C :   -0.299147
   9 H :    0.163534
  10 H :    0.163728
  11 H :    0.194644
  12 H :    0.192464
  13 H :    0.195113
  14 H :    0.193045
  15 H :    0.252098
Sum of atomic charges:    1.0000000

LOEWDIN ATOMIC CHARGES
----------------------
   0 N :    0.262096
   1 N :    0.262050
   2 C :   -0.531349
   3 C :   -0.531546
   4 C :   -0.142331
   5 Cl:    0.556976
   6 Cl:    0.557166
   7 C :   -0.219943
   8 C :   -0.219999
   9 H :    0.139268
  10 H :    0.139237
  11 H :    0.140519
  12 H :    0.140169
  13 H :    0.140557
  14 H :    0.140265
  15 H :    0.166864

  Mayer bond orders larger than 0.100000
B(  0-N ,  2-C ) :   1.1475 B(  0-N ,  4-C ) :   1.3888 B(  0-N ,  7-C ) :   0.8547
B(  1-N ,  3-C ) :   1.1478 B(  1-N ,  4-C ) :   1.3888 B(  1-N ,  8-C ) :   0.8545
B(  2-C ,  3-C ) :   1.5587 B(  2-C ,  5-Cl) :   1.3419 B(  3-C ,  6-Cl) :   1.3418
B(  4-C , 15-H ) :   0.8947 B(  7-C ,  9-H ) :   0.9546 B(  7-C , 11-H ) :   0.9525
B(  7-C , 14-H ) :   0.9526 B(  8-C , 10-H ) :   0.9547 B(  8-C , 12-H ) :   0.9526
B(  8-C , 13-H ) :   0.9524

Dispersion correction           -0.002512194
FINAL SINGLE POINT ENERGY     -1224.463519722636

DIPOLE MOMENT
-------------
                                X             Y             Z
Electronic contribution:     -0.38208      -0.14471     -13.93866
Nuclear contribution   :      0.45146       0.17059      16.45760
                        -----------------------------------------
Total Dipole Moment    :      0.06937       0.02588       2.51894
                        -----------------------------------------
Magnitude (a.u.)       :      2.52003
Magnitude (Debye)      :      6.40541

Dispersion correction in the Hessian             ... Starting D4

VIBRATIONAL FREQUENCIES
-----------------------

Scaling factor for frequencies =  1.000000000  (already applied!)

   0:         0.00 cm**-1
   1:         0.00 cm**-1
   2:         0.00 cm**-1
   3:         0.00 cm**-1
   4:         0.00 cm**-1
   5:         0.00 cm**-1
   6:       112.95 cm**-1
   7:       132.02 cm**-1
   8:       135.72 cm**-1
   9:       175.93 cm**-1
  10:       179.18 cm**-1
  11:       240.06 cm**-1
  12:       275.84 cm**-1
  13:       288.28 cm**-1
  14:       325.99 cm**-1
  15:       445.77 cm**-1
  16:       548.51 cm**-1
  17:       561.18 cm**-1
  18:       645.43 cm**-1
  19:       646.25 cm**-1
  20:       714.10 cm**-1
  21:       860.17 cm**-1
  22:       865.11 cm**-1
  23:      1114.72 cm**-1
  24:      1116.69 cm**-1
  25:      1128.70 cm**-1
  26:      1161.18 cm**-1
  27:      1167.37 cm**-1
  28:      1206.97 cm**-1
  29:      1249.43 cm**-1
  30:      1384.93 cm**-1
  31:      1436.90 cm**-1
  32:      1463.61 cm**-1
  33:      1470.57 cm**-1
  34:      1483.81 cm**-1
  35:      1485.28 cm**-1
  36:      1492.32 cm**-1
  37:      1518.57 cm**-1
  38:      1526.47 cm**-1
  39:      1645.08 cm**-1
  40:      1653.97 cm**-1
  41:      3106.01 cm**-1
  42:      3106.14 cm**-1
  43:      3199.36 cm**-1
  44:      3199.44 cm**-1
  45:      3210.62 cm**-1
  46:      3211.37 cm**-1
  47:      3299.14 cm**-1

IR SPECTRUM
-----------

 Mode   freq       eps      Int      T**2         TX        TY        TZ
       cm**-1   L/(mol*cm) km/mol    a.u.
----------------------------------------------------------------------------
  6:    112.95   0.000000    0.00  0.000001  (-0.000267  0.000100  0.000832)
  7:    132.02   0.000063    0.32  0.000149  ( 0.012047 -0.001835 -0.000240)
  8:    135.72   0.000039    0.20  0.000090  ( 0.008949 -0.001421  0.002867)
  9:    175.93   0.000178    0.90  0.000316  (-0.004729  0.000875  0.017100)
 10:    179.18   0.000794    4.02  0.001384  (-0.036843  0.005083 -0.000691)
 11:    240.06   0.000002    0.01  0.000002  ( 0.001140  0.000084  0.000833)
 12:    275.84   0.000531    2.68  0.000601  ( 0.001334  0.000191  0.024477)
 13:    288.28   0.000188    0.95  0.000203  (-0.014042  0.002153  0.001176)
 14:    325.99   0.000000    0.00  0.000000  ( 0.000053 -0.000075  0.000592)
 15:    445.77   0.001567    7.92  0.001097  (-0.004745 -0.032775  0.000467)
 16:    548.51   0.001663    8.40  0.000946  ( 0.000837  0.000298  0.030745)
 17:    561.18   0.000000    0.00  0.000000  (-0.000166 -0.000431 -0.000156)
 18:    645.43   0.002274   11.49  0.001099  (-0.032699  0.004591  0.003023)
 19:    646.25   0.000309    1.56  0.000149  (-0.008038  0.000997 -0.009151)
 20:    714.10   0.000000    0.00  0.000000  (-0.000061 -0.000048  0.000025)
 21:    860.17   0.002495   12.61  0.000905  ( 0.029704 -0.004708 -0.000769)
 22:    865.11   0.000217    1.10  0.000078  (-0.002499 -0.008493  0.000168)
 23:   1114.72   0.000276    1.40  0.000077  ( 0.000491  0.006347 -0.006068)
 24:   1116.69   0.000569    2.88  0.000159  (-0.001657 -0.012191 -0.002764)
 25:   1128.70   0.001262    6.38  0.000349  (-0.000607 -0.000362 -0.018669)
 26:   1161.18   0.000000    0.00  0.000000  (-0.000017 -0.000146 -0.000061)
 27:   1167.37   0.000028    0.14  0.000007  (-0.000723  0.002618 -0.000137)
 28:   1206.97   0.019540   98.75  0.005052  (-0.009717 -0.070405  0.000991)
 29:   1249.43   0.001121    5.67  0.000280  ( 0.002361  0.016564 -0.000235)
 30:   1384.93   0.001245    6.29  0.000281  ( 0.000302  0.000092  0.016748)
 31:   1436.90   0.000849    4.29  0.000184  ( 0.002074  0.013420  0.000112)
 32:   1463.61   0.003560   17.99  0.000759  ( 0.000907  0.000946  0.027520)
 33:   1470.57   0.002470   12.48  0.000524  ( 0.003603 -0.022534  0.001866)
 34:   1483.81   0.000561    2.83  0.000118  (-0.009308  0.000041 -0.005596)
 35:   1485.28   0.007107   35.91  0.001493  (-0.038610  0.000751 -0.001371)
 36:   1492.32   0.007052   35.64  0.001475  ( 0.003152 -0.000880 -0.038261)
 37:   1518.57   0.000350    1.77  0.000072  (-0.000477  0.008472  0.000078)
 38:   1526.47   0.000151    0.76  0.000031  (-0.000009 -0.000174 -0.005545)
 39:   1645.08   0.018817   95.09  0.003570  (-0.008086 -0.059186  0.001088)
 40:   1653.97   0.015685   79.26  0.002959  (-0.001535 -0.000960 -0.054370)
 41:   3106.01   0.000248    1.25  0.000025  ( 0.000441  0.002212  0.004448)
 42:   3106.14   0.000216    1.09  0.000022  ( 0.000481  0.003842 -0.002583)
 43:   3199.36   0.000006    0.03  0.000001  (-0.000654  0.000103  0.000328)
 44:   3199.44   0.000029    0.15  0.000003  (-0.001666  0.000076 -0.000169)
 45:   3210.62   0.000012    0.06  0.000001  ( 0.000262  0.000568  0.000860)
 46:   3211.37   0.000011    0.06  0.000001  ( 0.000260  0.000570 -0.000837)
 47:   3299.14   0.007028   35.52  0.000665  ( 0.000712  0.000247  0.025772)

--------------------------
THERMOCHEMISTRY AT 298.15K
--------------------------

Temperature         ... 298.15 K
Pressure            ... 1.00 atm
Total Mass          ... 166.03 AMU

Throughout the following assumptions are being made:
  (1) The electronic state is orbitally nondegenerate
  (2) There are no thermally accessible electronically excited states
  (3) Hindered rotations indicated by low frequency modes are not
      treated as such but are treated as vibrations and this may
      cause some error
  (4) All equations used are the standard statistical mechanics
      equations for an ideal gas
  (5) All vibrations are strictly harmonic

freq.     112.95  E(vib)   ...       0.45
freq.     132.02  E(vib)   ...       0.42
freq.     135.72  E(vib)   ...       0.42
freq.     175.93  E(vib)   ...       0.38
freq.     179.18  E(vib)   ...       0.37
freq.     240.06  E(vib)   ...       0.31
freq.     275.84  E(vib)   ...       0.28
freq.     288.28  E(vib)   ...       0.27
freq.     325.99  E(vib)   ...       0.24
freq.     445.77  E(vib)   ...       0.17
freq.     548.51  E(vib)   ...       0.12
freq.     561.18  E(vib)   ...       0.11
freq.     645.43  E(vib)   ...       0.09
freq.     646.25  E(vib)   ...       0.09
freq.     714.10  E(vib)   ...       0.07
freq.     860.17  E(vib)   ...       0.04
freq.     865.11  E(vib)   ...       0.04
freq.    1114.72  E(vib)   ...       0.01
freq.    1116.69  E(vib)   ...       0.01
freq.    1128.70  E(vib)   ...       0.01
freq.    1161.18  E(vib)   ...       0.01
freq.    1167.37  E(vib)   ...       0.01
freq.    1206.97  E(vib)   ...       0.01
freq.    1249.43  E(vib)   ...       0.01
freq.    1384.93  E(vib)   ...       0.00
freq.    1436.90  E(vib)   ...       0.00
freq.    1463.61  E(vib)   ...       0.00
freq.    1470.57  E(vib)   ...       0.00
freq.    1483.81  E(vib)   ...       0.00
freq.    1485.28  E(vib)   ...       0.00
freq.    1492.32  E(vib)   ...       0.00
freq.    1518.57  E(vib)   ...       0.00
freq.    1526.47  E(vib)   ...       0.00
freq.    1645.08  E(vib)   ...       0.00
freq.    1653.97  E(vib)   ...       0.00
freq.    3106.01  E(vib)   ...       0.00
freq.    3106.14  E(vib)   ...       0.00
freq.    3199.36  E(vib)   ...       0.00
freq.    3199.44  E(vib)   ...       0.00
freq.    3210.62  E(vib)   ...       0.00
freq.    3211.37  E(vib)   ...       0.00
freq.    3299.14  E(vib)   ...       0.00

------------
INNER ENERGY
------------

The inner energy is: U= E(el) + E(ZPE) + E(vib) + E(rot) + E(trans)
    E(el)   - is the total energy from the electronic structure calculation
              = E(kin-el) + E(nuc-el) + E(el-el) + E(nuc-nuc)
    E(ZPE)  - the the zero temperature vibrational energy from the frequency calculation
    E(vib)  - the the finite temperature correction to E(ZPE) due to population
              of excited vibrational states
    E(rot)  - is the rotational thermal energy
    E(trans)- is the translational thermal energy

Summary of contributions to the inner energy U:
Electronic energy                ...  -1224.46351972 Eh
Zero point energy                ...      0.12345654 Eh      77.47 kcal/mol
Thermal vibrational correction   ...      0.00636119 Eh       3.99 kcal/mol
Thermal rotational correction    ...      0.00141627 Eh       0.89 kcal/mol
Thermal translational correction ...      0.00141627 Eh       0.89 kcal/mol
-----------------------------------------------------------------------
Total thermal energy                  -1224.33086945 Eh

Summary of corrections to the electronic energy:
(perhaps to be used in another calculation)
Total thermal correction                  0.00919374 Eh       5.77 kcal/mol
Non-thermal (ZPE) correction              0.12345654 Eh      77.47 kcal/mol
-----------------------------------------------------------------------
Total correction                          0.13265027 Eh      83.24 kcal/mol

--------
ENTHALPY
--------

The enthalpy is H = U + kB*T
                kB is Boltzmann's constant
Total free energy                 ...  -1224.33086945 Eh
Thermal Enthalpy correction       ...      0.00094421 Eh       0.59 kcal/mol
-----------------------------------------------------------------------
Total Enthalpy                    ...  -1224.32992524 Eh

Note: Only C1 symmetry has been detected, increase convergence thresholds
      if your molecule has a higher symmetry. Symmetry factor of 1.0 is
      used for the rotational entropy correction.

Note: Rotational entropy computed according to Herzberg
Infrared and Raman Spectra, Chapter V,1, Van Nostrand Reinhold, 1945
Point Group:  C1, Symmetry Number:   1
Rotational constants in cm-1:     0.051501     0.036599     0.021570

Vibrational entropy computed according to the QRRHO of S. Grimme
Chem.Eur.J. 2012 18 9955

-------
ENTROPY
-------

The entropy contributions are T*S = T*(S(el)+S(vib)+S(rot)+S(trans))
     S(el)   - electronic entropy
     S(vib)  - vibrational entropy
     S(rot)  - rotational entropy
     S(trans)- translational entropy
The entropies will be listed as multiplied by the temperature to get
units of energy

Electronic entropy                ...      0.00000000 Eh      0.00 kcal/mol
Vibrational entropy               ...      0.01103407 Eh      6.92 kcal/mol
Rotational entropy                ...      0.01428380 Eh      8.96 kcal/mol
Translational entropy             ...      0.01958930 Eh     12.29 kcal/mol
-----------------------------------------------------------------------
Final entropy term                ...      0.04490717 Eh     28.18 kcal/mol

In case the symmetry of your molecule has not been determined correctly
or in case you have a reason to use a different symmetry number we print
out the resulting rotational entropy values for sn=1,12 :
 --------------------------------------------------------
|  sn= 1 | S(rot)=       0.01428380 Eh      8.96 kcal/mol|
|  sn= 2 | S(rot)=       0.01362934 Eh      8.55 kcal/mol|
|  sn= 3 | S(rot)=       0.01324651 Eh      8.31 kcal/mol|
|  sn= 4 | S(rot)=       0.01297488 Eh      8.14 kcal/mol|
|  sn= 5 | S(rot)=       0.01276420 Eh      8.01 kcal/mol|
|  sn= 6 | S(rot)=       0.01259205 Eh      7.90 kcal/mol|
|  sn= 7 | S(rot)=       0.01244651 Eh      7.81 kcal/mol|
|  sn= 8 | S(rot)=       0.01232043 Eh      7.73 kcal/mol|
|  sn= 9 | S(rot)=       0.01220922 Eh      7.66 kcal/mol|
|  sn=10 | S(rot)=       0.01210974 Eh      7.60 kcal/mol|
|  sn=11 | S(rot)=       0.01201975 Eh      7.54 kcal/mol|
|  sn=12 | S(rot)=       0.01193760 Eh      7.49 kcal/mol|
 --------------------------------------------------------

-------------------
GIBBS FREE ENERGY
-------------------

The Gibbs free energy is G = H - T*S

                             ****ORCA TERMINATED NORMALLY****
TOTAL RUN TIME: 0 days 0 hours 20 minutes 41 seconds 365 msec
