                         Program Version 5.0.4 -  RELEASE  -
|  1> # ORCA 5.0.4 - /users/bwb16179/postgrad/2024_06/pKa_Reviewer_Comments/Gas_Z=1/10_prot.inp # write input file
|  2> # Basic Mode
|  3> #
|  4> ! Opt Freq wB97X Def2-TZVP D4 SlowConv TightSCF Defgrid2 Def2/J RIJCOSX
|  5>
|  6> %PAL NPROCS 4 END
|  7>
|  8> %maxcore 4500
|  9>
| 10> %geom
| 11> Maxiter 150
| 12> END
| 13>
| 14> * xyzfile 1 1 10_prot.xyz
| 15>
| 16>                          ****END OF INPUT****
 Total Charge           Charge          ....    1
 Multiplicity           Mult            ....    1
 Number of Electrons    NEL             ....   62
Dispersion correction           -0.002460346
FINAL SINGLE POINT ENERGY      -345.794266519502
Dispersion correction            ... Starting D4
Dispersion correction           -0.002464246
FINAL SINGLE POINT ENERGY      -345.795113961559
Dispersion correction            ... Starting D4
Dispersion correction           -0.002464338
FINAL SINGLE POINT ENERGY      -345.795119089922
Dispersion correction            ... Starting D4
                    ***********************HURRAY********************

CARTESIAN COORDINATES (ANGSTROEM)
---------------------------------
  C     -0.070223    1.113366    1.247381
  C     -0.063824   -0.953135   -0.000000
  C     -0.070222    1.113366   -1.247381
  C      0.556758    1.708875   -0.000000
  H     -1.099966    1.454871    1.383905
  H     -0.060880   -2.037828    0.000000
  H      0.494156    1.392140   -2.137300
  H      1.631355    1.514469    0.000000
  N     -0.067776   -0.349228    1.161577
  N     -0.067776   -0.349228   -1.161577
  H     -1.099965    1.454872   -1.383905
  H      0.420142    2.789232   -0.000000
  H      0.494155    1.392140    2.137301
  C     -0.104775   -1.101732    2.409812
  H     -0.149457   -2.168467    2.200392
  H      0.788736   -0.889103    2.996974
  H     -0.986825   -0.816545    2.984142
  C     -0.104775   -1.101732   -2.409813
  H      0.788734   -0.889101   -2.996975
  H     -0.149453   -2.168467   -2.200391
  H     -0.986827   -0.816549   -2.984140

 Multiplicity           Mult            ....    1
 Number of Electrons    NEL             ....   62
 Basis Dimension        Dim             ....  326

ORBITAL ENERGIES
----------------

  NO   OCC          E(Eh)            E(eV)
   0   2.0000     -14.622929      -397.9101
   1   2.0000     -14.622913      -397.9097
   2   2.0000     -10.534767      -286.6656
   3   2.0000     -10.460131      -284.6346
   4   2.0000     -10.460124      -284.6344
   5   2.0000     -10.449325      -284.3406
   6   2.0000     -10.449324      -284.3406
   7   2.0000     -10.422318      -283.6057
   8   2.0000      -1.326295       -36.0903
   9   2.0000      -1.248114       -33.9629
  10   2.0000      -1.105739       -30.0887
  11   2.0000      -1.046692       -28.4819
  12   2.0000      -1.014894       -27.6167
  13   2.0000      -0.964331       -26.2408
  14   2.0000      -0.949827       -25.8461
  15   2.0000      -0.841489       -22.8981
  16   2.0000      -0.813491       -22.1362
  17   2.0000      -0.803943       -21.8764
  18   2.0000      -0.779783       -21.2190
  19   2.0000      -0.746523       -20.3139
  20   2.0000      -0.727489       -19.7960
  21   2.0000      -0.721238       -19.6259
  22   2.0000      -0.716476       -19.4963
  23   2.0000      -0.684008       -18.6128
  24   2.0000      -0.678964       -18.4755
  25   2.0000      -0.668763       -18.1980
  26   2.0000      -0.646805       -17.6005
  27   2.0000      -0.627295       -17.0696
  28   2.0000      -0.618862       -16.8401
  29   2.0000      -0.605440       -16.4749
  30   2.0000      -0.510888       -13.9020
  31   0.0000      -0.095228        -2.5913
  32   0.0000      -0.038101        -1.0368
  33   0.0000      -0.006988        -0.1902
  34   0.0000      -0.006400        -0.1742
  35   0.0000       0.015661         0.4262

MULLIKEN ATOMIC CHARGES
-----------------------
   0 C :   -0.192973
   1 C :    0.133294
   2 C :   -0.192983
   3 C :   -0.243657
   4 H :    0.174546
   5 H :    0.195632
   6 H :    0.174412
   7 H :    0.158947
   8 N :   -0.086872
   9 N :   -0.086882
  10 H :    0.174546
  11 H :    0.174641
  12 H :    0.174411
  13 C :   -0.268717
  14 H :    0.143997
  15 H :    0.173541
  16 H :    0.172647
  17 C :   -0.268715
  18 H :    0.173537
  19 H :    0.143997
  20 H :    0.172650
Sum of atomic charges:    1.0000000

LOEWDIN ATOMIC CHARGES
----------------------
   0 C :   -0.215159
   1 C :   -0.165161
   2 C :   -0.215159
   3 C :   -0.236360
   4 H :    0.150426
   5 H :    0.167670
   6 H :    0.154238
   7 H :    0.154344
   8 N :    0.207179
   9 N :    0.207179
  10 H :    0.150426
  11 H :    0.162134
  12 H :    0.154238
  13 C :   -0.237331
  14 H :    0.132194
  15 H :    0.132841
  16 H :    0.134299
  17 C :   -0.237332
  18 H :    0.132841
  19 H :    0.132195
  20 H :    0.134299

  Mayer bond orders larger than 0.100000
B(  0-C ,  3-C ) :   0.9623 B(  0-C ,  4-H ) :   0.9601 B(  0-C ,  8-N ) :   0.8712
B(  0-C , 12-H ) :   0.9638 B(  1-C ,  5-H ) :   0.9118 B(  1-C ,  8-N ) :   1.4920
B(  1-C ,  9-N ) :   1.4920 B(  2-C ,  3-C ) :   0.9623 B(  2-C ,  6-H ) :   0.9638
B(  2-C ,  9-N ) :   0.8712 B(  2-C , 10-H ) :   0.9601 B(  3-C ,  7-H ) :   0.9789
B(  3-C , 11-H ) :   0.9708 B(  8-N , 13-C ) :   0.8773 B(  9-N , 17-C ) :   0.8773
B( 13-C , 14-H ) :   0.9606 B( 13-C , 15-H ) :   0.9627 B( 13-C , 16-H ) :   0.9574
B( 17-C , 18-H ) :   0.9627 B( 17-C , 19-H ) :   0.9606 B( 17-C , 20-H ) :   0.9574

Dispersion correction           -0.002464318
FINAL SINGLE POINT ENERGY      -345.795121110015

DIPOLE MOMENT
-------------
                                X             Y             Z
Electronic contribution:     -0.16010      -0.58910       0.00000
Nuclear contribution   :      0.08846       0.21773       0.00000
                        -----------------------------------------
Total Dipole Moment    :     -0.07164      -0.37137       0.00000
                        -----------------------------------------
Magnitude (a.u.)       :      0.37822
Magnitude (Debye)      :      0.96135

Dispersion correction in the Hessian             ... Starting D4

VIBRATIONAL FREQUENCIES
-----------------------

Scaling factor for frequencies =  1.000000000  (already applied!)

   0:         0.00 cm**-1
   1:         0.00 cm**-1
   2:         0.00 cm**-1
   3:         0.00 cm**-1
   4:         0.00 cm**-1
   5:         0.00 cm**-1
   6:       123.35 cm**-1
   7:       159.93 cm**-1
   8:       187.65 cm**-1
   9:       212.81 cm**-1
  10:       274.28 cm**-1
  11:       300.12 cm**-1
  12:       316.63 cm**-1
  13:       421.57 cm**-1
  14:       467.45 cm**-1
  15:       471.71 cm**-1
  16:       528.61 cm**-1
  17:       617.88 cm**-1
  18:       804.60 cm**-1
  19:       878.70 cm**-1
  20:       917.62 cm**-1
  21:       938.06 cm**-1
  22:      1019.86 cm**-1
  23:      1044.71 cm**-1
  24:      1068.70 cm**-1
  25:      1126.03 cm**-1
  26:      1138.03 cm**-1
  27:      1141.18 cm**-1
  28:      1155.53 cm**-1
  29:      1175.15 cm**-1
  30:      1198.22 cm**-1
  31:      1254.45 cm**-1
  32:      1284.33 cm**-1
  33:      1284.88 cm**-1
  34:      1344.85 cm**-1
  35:      1376.48 cm**-1
  36:      1414.52 cm**-1
  37:      1428.58 cm**-1
  38:      1432.47 cm**-1
  39:      1476.32 cm**-1
  40:      1482.49 cm**-1
  41:      1487.86 cm**-1
  42:      1488.03 cm**-1
  43:      1491.78 cm**-1
  44:      1503.49 cm**-1
  45:      1509.46 cm**-1
  46:      1519.63 cm**-1
  47:      1523.39 cm**-1
  48:      1585.17 cm**-1
  49:      1785.21 cm**-1
  50:      3084.15 cm**-1
  51:      3084.86 cm**-1
  52:      3085.35 cm**-1
  53:      3086.50 cm**-1
  54:      3101.77 cm**-1
  55:      3150.14 cm**-1
  56:      3152.04 cm**-1
  57:      3165.77 cm**-1
  58:      3165.84 cm**-1
  59:      3168.74 cm**-1
  60:      3191.34 cm**-1
  61:      3191.42 cm**-1
  62:      3223.83 cm**-1

IR SPECTRUM
-----------

 Mode   freq       eps      Int      T**2         TX        TY        TZ
       cm**-1   L/(mol*cm) km/mol    a.u.
----------------------------------------------------------------------------
  6:    123.35   0.000006    0.03  0.000015  (-0.000000 -0.000000 -0.003936)
  7:    159.93   0.000584    2.95  0.001140  (-0.033722 -0.001603 -0.000000)
  8:    187.65   0.000024    0.12  0.000039  (-0.000001 -0.000000  0.006262)
  9:    212.81   0.000229    1.16  0.000335  (-0.018304 -0.000608 -0.000000)
 10:    274.28   0.000035    0.18  0.000040  (-0.006007 -0.001959  0.000000)
 11:    300.12   0.000000    0.00  0.000000  (-0.000000 -0.000000  0.000070)
 12:    316.63   0.000017    0.09  0.000017  (-0.001384 -0.003915  0.000000)
 13:    421.57   0.000011    0.06  0.000008  ( 0.000000  0.000000  0.002856)
 14:    467.45   0.002376   12.01  0.001586  (-0.039815  0.001092  0.000000)
 15:    471.71   0.000960    4.85  0.000635  ( 0.000000  0.000000  0.025203)
 16:    528.61   0.001143    5.78  0.000675  (-0.025169 -0.006439 -0.000000)
 17:    617.88   0.000084    0.42  0.000042  (-0.003024  0.005759  0.000000)
 18:    804.60   0.000195    0.98  0.000076  (-0.004681 -0.007325  0.000000)
 19:    878.70   0.000564    2.85  0.000200  ( 0.000000  0.000000 -0.014150)
 20:    917.62   0.000011    0.05  0.000004  ( 0.000000 -0.000000  0.001898)
 21:    938.06   0.000173    0.88  0.000058  (-0.006746  0.003491 -0.000000)
 22:   1019.86   0.000588    2.97  0.000180  ( 0.012413 -0.005087 -0.000000)
 23:   1044.71   0.004011   20.27  0.001198  ( 0.005504 -0.034173 -0.000000)
 24:   1068.70   0.000626    3.16  0.000183  ( 0.000000  0.000000 -0.013517)
 25:   1126.03   0.000620    3.13  0.000172  (-0.003021 -0.012759 -0.000000)
 26:   1138.03   0.000854    4.32  0.000234  (-0.014545 -0.004757 -0.000000)
 27:   1141.18   0.000492    2.49  0.000135  (-0.000000  0.000000 -0.011601)
 28:   1155.53   0.000032    0.16  0.000009  (-0.000000  0.000000  0.002949)
 29:   1175.15   0.000314    1.59  0.000083  (-0.009050 -0.001242  0.000000)
 30:   1198.22   0.011330   57.26  0.002951  ( 0.000000  0.000000  0.054322)
 31:   1254.45   0.004158   21.01  0.001034  (-0.000000  0.000000  0.032162)
 32:   1284.33   0.000027    0.14  0.000007  ( 0.000002  0.000005  0.002575)
 33:   1284.88   0.006754   34.13  0.001640  ( 0.014084  0.037975 -0.000000)
 34:   1344.85   0.001123    5.68  0.000261  (-0.009739  0.012878  0.000000)
 35:   1376.48   0.008744   44.19  0.001982  ( 0.000000  0.000000 -0.044523)
 36:   1414.52   0.002363   11.94  0.000521  (-0.000000 -0.000000 -0.022833)
 37:   1428.58   0.003240   16.37  0.000708  (-0.000000 -0.000000  0.026602)
 38:   1432.47   0.002394   12.10  0.000522  (-0.002312  0.022721 -0.000000)
 39:   1476.32   0.008398   42.44  0.001775  (-0.000001 -0.000000  0.042133)
 40:   1482.49   0.001559    7.88  0.000328  ( 0.012470  0.013139 -0.000000)
 41:   1487.86   0.000094    0.48  0.000020  (-0.000008  0.000001  0.004446)
 42:   1488.03   0.007405   37.42  0.001553  ( 0.039251 -0.003516  0.000001)
 43:   1491.78   0.000133    0.67  0.000028  ( 0.002135 -0.004817 -0.000000)
 44:   1503.49   0.003256   16.45  0.000676  ( 0.010370  0.023837  0.000000)
 45:   1509.46   0.000010    0.05  0.000002  ( 0.000000  0.000001  0.001412)
 46:   1519.63   0.000515    2.60  0.000106  ( 0.001024  0.010229  0.000000)
 47:   1523.39   0.000877    4.43  0.000180  ( 0.000000 -0.000000  0.013404)
 48:   1585.17   0.005991   30.28  0.001179  (-0.004737  0.034014 -0.000000)
 49:   1785.21   0.109783  554.80  0.019191  (-0.000000  0.000000  0.138530)
 50:   3084.15   0.000143    0.72  0.000014  (-0.000002  0.000005 -0.003806)
 51:   3084.86   0.001233    6.23  0.000125  (-0.002787  0.010816  0.000005)
 52:   3085.35   0.004691   23.71  0.000474  ( 0.000002 -0.000000 -0.021782)
 53:   3086.50   0.000813    4.11  0.000082  ( 0.007479 -0.005127  0.000007)
 54:   3101.77   0.001182    5.98  0.000119  (-0.010858  0.001035 -0.000000)
 55:   3150.14   0.000423    2.14  0.000042  ( 0.000000 -0.000000 -0.006474)
 56:   3152.04   0.000606    3.06  0.000060  (-0.007640 -0.001275 -0.000000)
 57:   3165.77   0.000003    0.02  0.000000  ( 0.000028 -0.000003  0.000571)
 58:   3165.84   0.001065    5.38  0.000105  ( 0.010193 -0.001031 -0.000002)
 59:   3168.74   0.000366    1.85  0.000036  ( 0.004820 -0.003572  0.000000)
 60:   3191.34   0.000784    3.96  0.000077  (-0.001059 -0.008691 -0.000002)
 61:   3191.42   0.000398    2.01  0.000039  ( 0.000000  0.000003 -0.006239)
 62:   3223.83   0.000044    0.22  0.000004  ( 0.000598 -0.001965  0.000000)

--------------------------
THERMOCHEMISTRY AT 298.15K
--------------------------

Temperature         ... 298.15 K
Pressure            ... 1.00 atm
Total Mass          ... 113.18 AMU

Throughout the following assumptions are being made:
  (1) The electronic state is orbitally nondegenerate
  (2) There are no thermally accessible electronically excited states
  (3) Hindered rotations indicated by low frequency modes are not
      treated as such but are treated as vibrations and this may
      cause some error
  (4) All equations used are the standard statistical mechanics
      equations for an ideal gas
  (5) All vibrations are strictly harmonic

freq.     123.35  E(vib)   ...       0.43
freq.     159.93  E(vib)   ...       0.39
freq.     187.65  E(vib)   ...       0.36
freq.     212.81  E(vib)   ...       0.34
freq.     274.28  E(vib)   ...       0.28
freq.     300.12  E(vib)   ...       0.26
freq.     316.63  E(vib)   ...       0.25
freq.     421.57  E(vib)   ...       0.18
freq.     467.45  E(vib)   ...       0.16
freq.     471.71  E(vib)   ...       0.15
freq.     528.61  E(vib)   ...       0.13
freq.     617.88  E(vib)   ...       0.09
freq.     804.60  E(vib)   ...       0.05
freq.     878.70  E(vib)   ...       0.04
freq.     917.62  E(vib)   ...       0.03
freq.     938.06  E(vib)   ...       0.03
freq.    1019.86  E(vib)   ...       0.02
freq.    1044.71  E(vib)   ...       0.02
freq.    1068.70  E(vib)   ...       0.02
freq.    1126.03  E(vib)   ...       0.01
freq.    1138.03  E(vib)   ...       0.01
freq.    1141.18  E(vib)   ...       0.01
freq.    1155.53  E(vib)   ...       0.01
freq.    1175.15  E(vib)   ...       0.01
freq.    1198.22  E(vib)   ...       0.01
freq.    1254.45  E(vib)   ...       0.01
freq.    1284.33  E(vib)   ...       0.01
freq.    1284.88  E(vib)   ...       0.01
freq.    1344.85  E(vib)   ...       0.01
freq.    1376.48  E(vib)   ...       0.01
freq.    1414.52  E(vib)   ...       0.00
freq.    1428.58  E(vib)   ...       0.00
freq.    1432.47  E(vib)   ...       0.00
freq.    1476.32  E(vib)   ...       0.00
freq.    1482.49  E(vib)   ...       0.00
freq.    1487.86  E(vib)   ...       0.00
freq.    1488.03  E(vib)   ...       0.00
freq.    1491.78  E(vib)   ...       0.00
freq.    1503.49  E(vib)   ...       0.00
freq.    1509.46  E(vib)   ...       0.00
freq.    1519.63  E(vib)   ...       0.00
freq.    1523.39  E(vib)   ...       0.00
freq.    1585.17  E(vib)   ...       0.00
freq.    1785.21  E(vib)   ...       0.00
freq.    3084.15  E(vib)   ...       0.00
freq.    3084.86  E(vib)   ...       0.00
freq.    3085.35  E(vib)   ...       0.00
freq.    3086.50  E(vib)   ...       0.00
freq.    3101.77  E(vib)   ...       0.00
freq.    3150.14  E(vib)   ...       0.00
freq.    3152.04  E(vib)   ...       0.00
freq.    3165.77  E(vib)   ...       0.00
freq.    3165.84  E(vib)   ...       0.00
freq.    3168.74  E(vib)   ...       0.00
freq.    3191.34  E(vib)   ...       0.00
freq.    3191.42  E(vib)   ...       0.00
freq.    3223.83  E(vib)   ...       0.00

------------
INNER ENERGY
------------

The inner energy is: U= E(el) + E(ZPE) + E(vib) + E(rot) + E(trans)
    E(el)   - is the total energy from the electronic structure calculation
              = E(kin-el) + E(nuc-el) + E(el-el) + E(nuc-nuc)
    E(ZPE)  - the the zero temperature vibrational energy from the frequency calculation
    E(vib)  - the the finite temperature correction to E(ZPE) due to population
              of excited vibrational states
    E(rot)  - is the rotational thermal energy
    E(trans)- is the translational thermal energy

Summary of contributions to the inner energy U:
Electronic energy                ...   -345.79512111 Eh
Zero point energy                ...      0.19640886 Eh     123.25 kcal/mol
Thermal vibrational correction   ...      0.00542134 Eh       3.40 kcal/mol
Thermal rotational correction    ...      0.00141627 Eh       0.89 kcal/mol
Thermal translational correction ...      0.00141627 Eh       0.89 kcal/mol
-----------------------------------------------------------------------
Total thermal energy                   -345.59045837 Eh

Summary of corrections to the electronic energy:
(perhaps to be used in another calculation)
Total thermal correction                  0.00825388 Eh       5.18 kcal/mol
Non-thermal (ZPE) correction              0.19640886 Eh     123.25 kcal/mol
-----------------------------------------------------------------------
Total correction                          0.20466274 Eh     128.43 kcal/mol

--------
ENTHALPY
--------

The enthalpy is H = U + kB*T
                kB is Boltzmann's constant
Total free energy                 ...   -345.59045837 Eh
Thermal Enthalpy correction       ...      0.00094421 Eh       0.59 kcal/mol
-----------------------------------------------------------------------
Total Enthalpy                    ...   -345.58951416 Eh

Note: Rotational entropy computed according to Herzberg
Infrared and Raman Spectra, Chapter V,1, Van Nostrand Reinhold, 1945
Point Group:  Cs, Symmetry Number:   1
Rotational constants in cm-1:     0.107640     0.059184     0.040242

Vibrational entropy computed according to the QRRHO of S. Grimme
Chem.Eur.J. 2012 18 9955

-------
ENTROPY
-------

The entropy contributions are T*S = T*(S(el)+S(vib)+S(rot)+S(trans))
     S(el)   - electronic entropy
     S(vib)  - vibrational entropy
     S(rot)  - rotational entropy
     S(trans)- translational entropy
The entropies will be listed as multiplied by the temperature to get
units of energy

Electronic entropy                ...      0.00000000 Eh      0.00 kcal/mol
Vibrational entropy               ...      0.00896860 Eh      5.63 kcal/mol
Rotational entropy                ...      0.01341449 Eh      8.42 kcal/mol
Translational entropy             ...      0.01904664 Eh     11.95 kcal/mol
-----------------------------------------------------------------------
Final entropy term                ...      0.04142973 Eh     26.00 kcal/mol

In case the symmetry of your molecule has not been determined correctly
or in case you have a reason to use a different symmetry number we print
out the resulting rotational entropy values for sn=1,12 :
 --------------------------------------------------------
|  sn= 1 | S(rot)=       0.01341449 Eh      8.42 kcal/mol|
|  sn= 2 | S(rot)=       0.01276003 Eh      8.01 kcal/mol|
|  sn= 3 | S(rot)=       0.01237720 Eh      7.77 kcal/mol|
|  sn= 4 | S(rot)=       0.01210558 Eh      7.60 kcal/mol|
|  sn= 5 | S(rot)=       0.01189489 Eh      7.46 kcal/mol|
|  sn= 6 | S(rot)=       0.01172275 Eh      7.36 kcal/mol|
|  sn= 7 | S(rot)=       0.01157720 Eh      7.26 kcal/mol|
|  sn= 8 | S(rot)=       0.01145112 Eh      7.19 kcal/mol|
|  sn= 9 | S(rot)=       0.01133991 Eh      7.12 kcal/mol|
|  sn=10 | S(rot)=       0.01124043 Eh      7.05 kcal/mol|
|  sn=11 | S(rot)=       0.01115044 Eh      7.00 kcal/mol|

                             ****ORCA TERMINATED NORMALLY****
TOTAL RUN TIME: 0 days 0 hours 21 minutes 24 seconds 675 msec
