   * xtb version 6.6.1 (8d0f1dd) compiled by 'conda@1efc2f54142f' on 2023-08-01
          program call               : xtb struc.xyz --gfn2 --ceasefiles --opt

   ID    Z sym.   atoms
    1    6 C      1, 2, 5-7, 11-14, 27, 28
    2    7 N      3, 4
    3    1 H      8-10, 15-26, 29-34

          :  Hamiltonian                  GFN2-xTB          :
 * total energy  :   -39.7424135 Eh     change       -0.3231669E-08 Eh
 * total energy  :   -39.7657426 Eh     change       -0.2332915E-01 Eh
 * total energy  :   -39.7724896 Eh     change       -0.6746987E-02 Eh
 * total energy  :   -39.7747111 Eh     change       -0.2221454E-02 Eh
 * total energy  :   -39.7758356 Eh     change       -0.1124548E-02 Eh
 * total energy  :   -39.7766349 Eh     change       -0.7992573E-03 Eh
 * total energy  :   -39.7772839 Eh     change       -0.6490093E-03 Eh
 * total energy  :   -39.7777502 Eh     change       -0.4663652E-03 Eh
   *** GEOMETRY OPTIMIZATION CONVERGED AFTER 8 ITERATIONS ***

 final structure:
================
34
 xtb: 6.6.1 (8d0f1dd)
C           -2.20762690425228        0.19010955429439        1.15764099368777
C            2.34107968216730       -0.33803804866708       -0.79108737606822
N           -1.07946986843029        0.20446754411529        0.20856267556826
N            0.91950341174425        0.03051015445076       -0.64680180406346
C           -1.13241031475164        0.68363896372006       -1.06533625000602
C            0.11155775275792        0.56786058165609       -1.60167668166366
C            0.17388265318179       -0.17958237083595        0.43541158528700
H           -2.02532869685321        1.06304660967898       -1.51506167963473
H            0.44594295565717        0.84396374455640       -2.57836015406678
H            0.52817382279720       -0.59664771401477        1.35444480175906
C           -1.87019884417900       -0.70665971295681        2.34599916402902
C            2.93983992692089        0.40342889893980       -1.98267816977816
C            2.40074633852454       -1.84950887047233       -1.03193096942480
C           -2.43538713388394        1.62903355333544        1.62222347806296
H           -1.11160195352531       -0.26264293095173        2.98391899592724
H            2.78481106852643        1.47447813812461       -1.90623739134178
H            1.85518405000209       -2.11559919141274       -1.93305694492739
H           -1.56395992824069        2.01170837223565        2.15294445605005
H           -2.76566728984261       -0.84455698744358        2.94598753341702
H            2.52399689901387        0.04394958533348       -2.91993463539508
H            3.43502879389941       -2.15518681920096       -1.15636892719399
H           -3.28753113521543        1.66231307981128        2.29658870606568
H           -1.53758562059506       -1.69051863740146        2.01757971603413
H            4.01088449904081        0.21791059523893       -2.01243199542895
H            1.98249243869807       -2.40111928489710       -0.19397041274280
H           -2.64437274517187        2.28697736501970        0.78064475759291
C           -3.44297882248191       -0.34601181335371        0.43732922662898
C            3.07771138118704        0.04212708438666        0.49331910289134
H           -4.27193331797813       -0.39285005244068        1.14299386990472
H            2.78749702790356       -0.59016085734885        1.32737847031425
H           -3.74948140871398        0.29962695510863       -0.37983235566603
H            2.88918510590330        1.08123369353825        0.75458315391149
H            4.14518882711070       -0.08027505290263        0.34905091855827
H           -3.26760600112098       -1.34882402404402        0.05169575391170

          :  Hamiltonian                  GFN2-xTB          :
         :: total energy             -39.777750247822 Eh    ::
         :: gradient norm              0.006751237639 Eh/a0 ::
         :: HOMO-LUMO gap              4.822837343769 eV    ::
         :: SCC energy               -40.388225136801 Eh    ::
         :: -> dispersion             -0.027867613112 Eh    ::
         :: repulsion energy           0.610201989182 Eh    ::

    * Orbital Energies and Occupations

         #    Occupation            Energy/Eh            Energy/eV
      -------------------------------------------------------------
         1        2.0000           -0.8780286             -23.8924
       ...           ...                  ...                  ...
        25        2.0000           -0.6012848             -16.3618
        26        2.0000           -0.6001518             -16.3310
        27        2.0000           -0.5985430             -16.2872
        28        2.0000           -0.5967213             -16.2376
        29        2.0000           -0.5937897             -16.1578
        30        2.0000           -0.5911277             -16.0854
        31        2.0000           -0.5896248             -16.0445
        32        2.0000           -0.5892384             -16.0340
        33        2.0000           -0.5814254             -15.8214
        34        2.0000           -0.5785014             -15.7418
        35        2.0000           -0.5780382             -15.7292
        36        2.0000           -0.5731345             -15.5958
        37        2.0000           -0.5701791             -15.5154 (HOMO)
        38                         -0.3929431             -10.6925 (LUMO)
        39                         -0.3562344              -9.6936
        40                         -0.1969647              -5.3597
        41                         -0.1477669              -4.0209
        42                         -0.0735415              -2.0012
        43                         -0.0590193              -1.6060
        44                         -0.0584618              -1.5908
        45                         -0.0549355              -1.4949
        46                         -0.0437604              -1.1908
        47                         -0.0388881              -1.0582
        48                         -0.0302882              -0.8242
       ...                                ...                  ...
        73                          0.4751785              12.9303
      -------------------------------------------------------------
                  HL-Gap            0.1772360 Eh            4.8228 eV

     #   Z          covCN         q      C6AA      α(0)
     1   6 C        3.836     0.076    19.298     6.250
     2   6 C        3.836     0.075    19.308     6.251
     3   7 N        2.867     0.047    20.413     6.710
     4   7 N        2.870     0.047    20.425     6.712
     5   6 C        3.083    -0.006    28.080     8.687
     6   6 C        3.077    -0.007    28.111     8.693
     7   6 C        3.115     0.052    26.687     8.462
     8   1 H        0.927     0.099     1.793     2.094
     9   1 H        0.927     0.104     1.752     2.070
    10   1 H        0.927     0.109     1.709     2.044
    11   6 C        3.759    -0.133    23.097     6.851
    12   6 C        3.760    -0.131    23.065     6.847
    13   6 C        3.760    -0.128    22.996     6.836
    14   6 C        3.760    -0.127    22.986     6.835
    15   1 H        0.925     0.058     2.220     2.330
    16   1 H        0.925     0.062     2.179     2.308
    17   1 H        0.925     0.059     2.205     2.322
    18   1 H        0.925     0.056     2.243     2.342
    19   1 H        0.925     0.082     1.959     2.189
    20   1 H        0.925     0.062     2.175     2.307
    21   1 H        0.925     0.081     1.969     2.194
    22   1 H        0.925     0.080     1.975     2.198
    23   1 H        0.925     0.056     2.247     2.344
    24   1 H        0.925     0.079     1.990     2.206
    25   1 H        0.925     0.054     2.271     2.357
    26   1 H        0.925     0.060     2.204     2.321
    27   6 C        3.760    -0.129    23.029     6.841
    28   6 C        3.759    -0.131    23.065     6.847
    29   1 H        0.925     0.078     1.997     2.210
    30   1 H        0.925     0.056     2.251     2.346
    31   1 H        0.925     0.061     2.183     2.310
    32   1 H        0.925     0.058     2.219     2.329
    33   1 H        0.925     0.081     1.969     2.194
    34   1 H        0.925     0.060     2.198     2.319

molecular dipole:
                 x           y           z       tot (Debye)
 q only:       -0.042       0.066      -0.094
   full:       -0.042       0.061      -0.083       0.284

           -------------------------------------------------
          | TOTAL ENERGY              -39.777750247822 Eh   |
          | GRADIENT NORM               0.006751237639 Eh/α |
          | HOMO-LUMO GAP               4.822837343769 eV   |
           -------------------------------------------------

 * finished run on 2024/02/12 at 14:13:52.240
