                         Program Version 5.0.4 -  RELEASE  -
|  1> # ORCA 5.0.4 - /users/bwb16179/postgrad/2024_06/pKa_Reviewer_Comments/Gas_Z=1/6_prot.inp # write input file
|  2> # Basic Mode
|  3> #
|  4> ! Opt Freq wB97X Def2-TZVP D4 SlowConv TightSCF Defgrid2 Def2/J RIJCOSX
|  5>
|  6> %PAL NPROCS 4 END
|  7>
|  8> %maxcore 4500
|  9>
| 10> %geom
| 11> Maxiter 150
| 12> END
| 13>
| 14> * xyzfile 1 1 6_prot.xyz
| 15>
| 16>                          ****END OF INPUT****
 Total Charge           Charge          ....    1
 Multiplicity           Mult            ....    1
 Number of Electrons    NEL             ....  100
Dispersion correction           -0.005602585
FINAL SINGLE POINT ENERGY      -541.203646738545
Dispersion correction            ... Starting D4
Dispersion correction           -0.005618599
FINAL SINGLE POINT ENERGY      -541.205043446068
Dispersion correction            ... Starting D4
Dispersion correction           -0.005619859
FINAL SINGLE POINT ENERGY      -541.205054753471
Dispersion correction            ... Starting D4
Dispersion correction           -0.005619978
FINAL SINGLE POINT ENERGY      -541.205057783042
Dispersion correction            ... Starting D4
                    ***********************HURRAY********************

CARTESIAN COORDINATES (ANGSTROEM)
---------------------------------
  C     -0.061848    0.645372   -1.284415
  C      0.047627   -0.711942   -1.262272
  C     -0.006710    0.000975    0.819683
  N     -0.099039    1.064331    0.034126
  N      0.085419   -1.087500    0.069333
  H     -0.005805    0.018631    1.895971
  C     -0.141698    1.588865   -2.431246
  C      0.130653   -1.691744   -2.377811
  H     -1.091665    2.126154   -2.441897
  H     -0.672742   -2.428345   -2.327122
  H      1.083347   -2.224298   -2.372169
  H      0.665590    2.322478   -2.404912
  H     -0.061682    1.041564   -3.367851
  H      0.046623   -1.175184   -3.331374
  C     -0.941409    2.607376    1.769781
  C     -1.284083   -3.019819    0.722349
  C      0.935277   -2.568776    1.854470
  C      1.280708    3.008552    0.624643
  C     -0.136900    2.472146    0.488804
  C      0.130246   -2.479611    0.569704
  H     -1.934747    2.168456    1.669844
  H     -1.847159   -2.944969   -0.208751
  H      1.926084   -2.127438    1.740843
  H      1.843046    2.901609   -0.303757
  H     -0.431761    2.149224    2.620139
  H     -1.824034   -2.472419    1.497916
  H      0.422515   -2.087267    2.689898
  H      1.817346    2.481856    1.416693
  H     -1.061615    3.665019    2.001347
  H     -1.247756   -4.069747    1.012376
  H      1.061757   -3.617835    2.119516
  H      1.250960    4.067079    0.882302
  H     -0.654744    3.007854   -0.307749
  H      0.651630   -3.037826   -0.208939

 Multiplicity           Mult            ....    1
 Number of Electrons    NEL             ....  100
 Basis Dimension        Dim             ....  529

ORBITAL ENERGIES
----------------

  NO   OCC          E(Eh)            E(eV)
   0   2.0000     -14.622223      -397.8909
   1   2.0000     -14.622190      -397.8900
   2   2.0000     -10.494005      -285.5564
   3   2.0000     -10.453589      -284.4566
   4   2.0000     -10.453571      -284.4561
   5   2.0000     -10.450371      -284.3690
   6   2.0000     -10.449685      -284.3504
   7   2.0000     -10.398153      -282.9481
   8   2.0000     -10.398141      -282.9478
   9   2.0000     -10.385118      -282.5934
  10   2.0000     -10.385079      -282.5924
  11   2.0000     -10.381346      -282.4908
  12   2.0000     -10.381287      -282.4892
  13   2.0000      -1.349626       -36.7252
  14   2.0000      -1.232045       -33.5256
  15   2.0000      -1.106483       -30.1089
  16   2.0000      -1.079631       -29.3783
  17   2.0000      -1.054907       -28.7055
  18   2.0000      -1.006824       -27.3971
  19   2.0000      -0.969778       -26.3890
  20   2.0000      -0.960065       -26.1247
  21   2.0000      -0.956700       -26.0331
  22   2.0000      -0.940953       -25.6046
  23   2.0000      -0.868496       -23.6330
  24   2.0000      -0.863496       -23.4969
  25   2.0000      -0.833378       -22.6774
  26   2.0000      -0.786393       -21.3989
  27   2.0000      -0.767573       -20.8867
  28   2.0000      -0.750253       -20.4154
  29   2.0000      -0.726819       -19.7777
  30   2.0000      -0.707959       -19.2645
  31   2.0000      -0.704891       -19.1810
  32   2.0000      -0.684581       -18.6284
  33   2.0000      -0.674847       -18.3635
  34   2.0000      -0.674488       -18.3537
  35   2.0000      -0.661081       -17.9889
  36   2.0000      -0.656262       -17.8578
  37   2.0000      -0.650839       -17.7102
  38   2.0000      -0.647138       -17.6095
  39   2.0000      -0.638030       -17.3617
  40   2.0000      -0.631630       -17.1875
  41   2.0000      -0.625294       -17.0151
  42   2.0000      -0.619099       -16.8466
  43   2.0000      -0.613551       -16.6956
  44   2.0000      -0.603546       -16.4233
  45   2.0000      -0.591860       -16.1053
  46   2.0000      -0.590020       -16.0553
  47   2.0000      -0.588741       -16.0205
  48   2.0000      -0.536009       -14.5855
  49   2.0000      -0.481747       -13.1090
  50   0.0000      -0.077386        -2.1058
  51   0.0000      -0.026931        -0.7328
  52   0.0000      -0.025189        -0.6854
  53   0.0000      -0.008232        -0.2240
  54   0.0000      -0.002474        -0.0673

MULLIKEN ATOMIC CHARGES
-----------------------
   0 C :    0.020910
   1 C :    0.020558
   2 C :    0.071418
   3 N :   -0.022849
   4 N :   -0.022459
   5 H :    0.224732
   6 C :   -0.326669
   7 C :   -0.326455
   8 H :    0.173261
   9 H :    0.155392
  10 H :    0.173225
  11 H :    0.155371
  12 H :    0.141938
  13 H :    0.141897
  14 C :   -0.357492
  15 C :   -0.331066
  16 C :   -0.358076
  17 C :   -0.330834
  18 C :   -0.113887
  19 C :   -0.113448
  20 H :    0.154693
  21 H :    0.133816
  22 H :    0.154675
  23 H :    0.133721
  24 H :    0.123974
  25 H :    0.133983
  26 H :    0.124275
  27 H :    0.133910
  28 H :    0.168104
  29 H :    0.161784
  30 H :    0.168184
  31 H :    0.161869
  32 H :    0.135813
  33 H :    0.135729
Sum of atomic charges:    1.0000000

LOEWDIN ATOMIC CHARGES
----------------------
   0 C :   -0.174890
   1 C :   -0.174934
   2 C :   -0.154860
   3 N :    0.319619
   4 N :    0.319647
   5 H :    0.160618
   6 C :   -0.236116
   7 C :   -0.236124
   8 H :    0.142025
   9 H :    0.139154
  10 H :    0.142059
  11 H :    0.139174
  12 H :    0.142617
  13 H :    0.142652
  14 C :   -0.261975
  15 C :   -0.258007
  16 C :   -0.262041
  17 C :   -0.257965
  18 C :   -0.276226
  19 C :   -0.276189
  20 H :    0.132253
  21 H :    0.127131
  22 H :    0.132210
  23 H :    0.127111
  24 H :    0.126113
  25 H :    0.129566
  26 H :    0.126148
  27 H :    0.129532
  28 H :    0.143145
  29 H :    0.140252
  30 H :    0.143178
  31 H :    0.140235
  32 H :    0.162428
  33 H :    0.162460

  Mayer bond orders larger than 0.100000
B(  0-C ,  1-C ) :   1.7023 B(  0-C ,  3-N ) :   1.1771 B(  0-C ,  6-C ) :   0.8455
B(  1-C ,  4-N ) :   1.1770 B(  1-C ,  7-C ) :   0.8460 B(  2-C ,  3-N ) :   1.3734
B(  2-C ,  4-N ) :   1.3739 B(  2-C ,  5-H ) :   0.9216 B(  3-N , 18-C ) :   0.8218
B(  4-N , 19-C ) :   0.8219 B(  6-C ,  8-H ) :   0.9819 B(  6-C , 11-H ) :   0.9649
B(  6-C , 12-H ) :   0.9899 B(  7-C ,  9-H ) :   0.9648 B(  7-C , 10-H ) :   0.9818
B(  7-C , 13-H ) :   0.9899 B( 14-C , 18-C ) :   0.9671 B( 14-C , 20-H ) :   0.9789
B( 14-C , 24-H ) :   0.9591 B( 14-C , 28-H ) :   0.9651 B( 15-C , 19-C ) :   1.0020
B( 15-C , 21-H ) :   0.9637 B( 15-C , 25-H ) :   0.9577 B( 15-C , 29-H ) :   0.9776
B( 16-C , 19-C ) :   0.9668 B( 16-C , 22-H ) :   0.9789 B( 16-C , 26-H ) :   0.9592
B( 16-C , 30-H ) :   0.9650 B( 17-C , 18-C ) :   1.0023 B( 17-C , 23-H ) :   0.9635
B( 17-C , 27-H ) :   0.9577 B( 17-C , 31-H ) :   0.9777 B( 18-C , 32-H ) :   0.9638
B( 19-C , 33-H ) :   0.9639

Dispersion correction           -0.005619844
FINAL SINGLE POINT ENERGY      -541.205058992794

DIPOLE MOMENT
-------------
                                X             Y             Z
Electronic contribution:     -0.02760      -0.03287      -2.32384
Nuclear contribution   :      0.02983       0.03418       2.38701
                        -----------------------------------------
Total Dipole Moment    :      0.00223       0.00131       0.06317
                        -----------------------------------------
Magnitude (a.u.)       :      0.06322
Magnitude (Debye)      :      0.16070

Dispersion correction in the Hessian             ... Starting D4

VIBRATIONAL FREQUENCIES
-----------------------

Scaling factor for frequencies =  1.000000000  (already applied!)

   0:         0.00 cm**-1
   1:         0.00 cm**-1
   2:         0.00 cm**-1
   3:         0.00 cm**-1
   4:         0.00 cm**-1
   5:         0.00 cm**-1
   6:        59.48 cm**-1
   7:        68.42 cm**-1
   8:        90.80 cm**-1
   9:        97.20 cm**-1
  10:       105.62 cm**-1
  11:       126.06 cm**-1
  12:       149.26 cm**-1
  13:       212.93 cm**-1
  14:       220.60 cm**-1
  15:       253.14 cm**-1
  16:       255.57 cm**-1
  17:       281.82 cm**-1
  18:       286.11 cm**-1
  19:       290.61 cm**-1
  20:       291.81 cm**-1
  21:       320.10 cm**-1
  22:       328.86 cm**-1
  23:       378.03 cm**-1
  24:       433.95 cm**-1
  25:       459.95 cm**-1
  26:       481.07 cm**-1
  27:       546.32 cm**-1
  28:       607.62 cm**-1
  29:       616.56 cm**-1
  30:       678.41 cm**-1
  31:       710.84 cm**-1
  32:       748.67 cm**-1
  33:       794.92 cm**-1
  34:       866.77 cm**-1
  35:       908.82 cm**-1
  36:       920.68 cm**-1
  37:       954.13 cm**-1
  38:       954.83 cm**-1
  39:       972.66 cm**-1
  40:       973.50 cm**-1
  41:       985.03 cm**-1
  42:      1061.50 cm**-1
  43:      1068.77 cm**-1
  44:      1083.66 cm**-1
  45:      1109.51 cm**-1
  46:      1140.38 cm**-1
  47:      1161.79 cm**-1
  48:      1177.39 cm**-1
  49:      1180.31 cm**-1
  50:      1209.28 cm**-1
  51:      1224.85 cm**-1
  52:      1227.15 cm**-1
  53:      1254.27 cm**-1
  54:      1340.03 cm**-1
  55:      1371.16 cm**-1
  56:      1371.48 cm**-1
  57:      1397.34 cm**-1
  58:      1400.69 cm**-1
  59:      1425.19 cm**-1
  60:      1425.45 cm**-1
  61:      1428.89 cm**-1
  62:      1441.64 cm**-1
  63:      1443.74 cm**-1
  64:      1445.79 cm**-1
  65:      1475.30 cm**-1
  66:      1480.67 cm**-1
  67:      1484.83 cm**-1
  68:      1489.01 cm**-1
  69:      1490.19 cm**-1
  70:      1493.12 cm**-1
  71:      1495.36 cm**-1
  72:      1496.39 cm**-1
  73:      1506.28 cm**-1
  74:      1506.99 cm**-1
  75:      1508.35 cm**-1
  76:      1514.97 cm**-1
  77:      1516.37 cm**-1
  78:      1520.72 cm**-1
  79:      1634.32 cm**-1
  80:      1711.79 cm**-1
  81:      3075.36 cm**-1
  82:      3075.43 cm**-1
  83:      3077.81 cm**-1
  84:      3077.82 cm**-1
  85:      3083.36 cm**-1
  86:      3084.37 cm**-1
  87:      3124.82 cm**-1
  88:      3125.55 cm**-1
  89:      3150.72 cm**-1
  90:      3150.92 cm**-1
  91:      3153.94 cm**-1
  92:      3153.99 cm**-1
  93:      3160.38 cm**-1
  94:      3160.59 cm**-1
  95:      3170.42 cm**-1
  96:      3170.46 cm**-1
  97:      3174.70 cm**-1
  98:      3174.92 cm**-1
  99:      3185.15 cm**-1
 100:      3190.89 cm**-1
 101:      3319.01 cm**-1

IR SPECTRUM
-----------

 Mode   freq       eps      Int      T**2         TX        TY        TZ
       cm**-1   L/(mol*cm) km/mol    a.u.
----------------------------------------------------------------------------
  6:     59.48   0.000018    0.09  0.000093  (-0.001390  0.000042  0.009563)
  7:     68.42   0.000051    0.26  0.000234  (-0.015275 -0.000561 -0.000618)
  8:     90.80   0.000079    0.40  0.000270  ( 0.016083  0.003377  0.000281)
  9:     97.20   0.000008    0.04  0.000025  ( 0.004830 -0.001125  0.000568)
 10:    105.62   0.000007    0.04  0.000022  ( 0.003145 -0.000326 -0.003482)
 11:    126.06   0.000007    0.03  0.000017  ( 0.003989 -0.000219  0.000899)
 12:    149.26   0.000004    0.02  0.000008  ( 0.000355  0.000087  0.002798)
 13:    212.93   0.000001    0.00  0.000001  ( 0.000204 -0.000495  0.000868)
 14:    220.60   0.000019    0.10  0.000027  (-0.000654 -0.005122 -0.000005)
 15:    253.14   0.000003    0.02  0.000004  ( 0.001442 -0.000700 -0.001217)
 16:    255.57   0.000003    0.01  0.000003  ( 0.001436 -0.000379  0.001032)
 17:    281.82   0.000018    0.09  0.000020  (-0.003059  0.001606 -0.002882)
 18:    286.11   0.000281    1.42  0.000307  (-0.017290  0.002261  0.001712)
 19:    290.61   0.001112    5.62  0.001194  (-0.034301 -0.004171 -0.000479)
 20:    291.81   0.000013    0.07  0.000014  (-0.003360  0.000947 -0.001442)
 21:    320.10   0.000052    0.26  0.000051  (-0.000290 -0.007119  0.000402)
 22:    328.86   0.000020    0.10  0.000019  (-0.000093  0.000388  0.004342)
 23:    378.03   0.000113    0.57  0.000093  ( 0.009285  0.002631  0.000072)
 24:    433.95   0.000076    0.38  0.000054  ( 0.006467 -0.003554  0.000103)
 25:    459.95   0.000134    0.68  0.000091  ( 0.000027  0.000297  0.009543)
 26:    481.07   0.000014    0.07  0.000009  ( 0.000084 -0.000087  0.003047)
 27:    546.32   0.001480    7.48  0.000846  (-0.001123  0.029055 -0.000419)
 28:    607.62   0.000692    3.50  0.000356  ( 0.000156  0.000054  0.018854)
 29:    616.56   0.000297    1.50  0.000150  ( 0.005412 -0.010977 -0.000583)
 30:    678.41   0.002662   13.45  0.001225  ( 0.034284 -0.007016  0.000049)
 31:    710.84   0.000000    0.00  0.000000  (-0.000060  0.000022  0.000427)
 32:    748.67   0.000865    4.37  0.000361  ( 0.000082  0.000306  0.018991)
 33:    794.92   0.000571    2.88  0.000224  (-0.004210 -0.014359  0.000247)
 34:    866.77   0.001334    6.74  0.000480  (-0.021632 -0.003533  0.000146)
 35:    908.82   0.000000    0.00  0.000000  ( 0.000008 -0.000055  0.000100)
 36:    920.68   0.000158    0.80  0.000053  ( 0.001561 -0.007139  0.000076)
 37:    954.13   0.000200    1.01  0.000065  (-0.005587  0.001865  0.005539)
 38:    954.83   0.000261    1.32  0.000085  ( 0.007894 -0.002428  0.004149)
 39:    972.66   0.000013    0.07  0.000004  (-0.000058 -0.000013  0.002070)
 40:    973.50   0.000096    0.49  0.000031  ( 0.005519 -0.000564  0.000022)
 41:    985.03   0.000043    0.22  0.000014  (-0.000030 -0.000148  0.003692)
 42:   1061.50   0.000090    0.46  0.000027  (-0.004966  0.001378 -0.000025)
 43:   1068.77   0.000237    1.20  0.000069  (-0.000002  0.008310 -0.000186)
 44:   1083.66   0.000037    0.18  0.000011  ( 0.000021  0.000397  0.003222)
 45:   1109.51   0.000413    2.09  0.000116  (-0.000088 -0.000339 -0.010773)
 46:   1140.38   0.001890    9.55  0.000517  (-0.001486  0.022691 -0.000469)
 47:   1161.79   0.000124    0.63  0.000033  ( 0.000226 -0.000318 -0.005756)
 48:   1177.39   0.002031   10.26  0.000538  ( 0.018349 -0.014186  0.000539)
 49:   1180.31   0.000115    0.58  0.000030  (-0.000789  0.000716  0.005412)
 50:   1209.28   0.000756    3.82  0.000195  ( 0.004639 -0.013177  0.000234)
 51:   1224.85   0.000663    3.35  0.000169  (-0.000080  0.003260 -0.012578)
 52:   1227.15   0.026504  133.94  0.006740  (-0.001366  0.082084 -0.000632)
 53:   1254.27   0.003800   19.20  0.000945  ( 0.003475  0.030544 -0.000651)
 54:   1340.03   0.000190    0.96  0.000044  (-0.000097 -0.000649 -0.006623)
 55:   1371.16   0.000295    1.49  0.000067  (-0.001460 -0.000614  0.008037)
 56:   1371.48   0.000127    0.64  0.000029  (-0.004311 -0.001697 -0.002720)
 57:   1397.34   0.003735   18.87  0.000834  (-0.007065 -0.027335  0.006078)
 58:   1400.69   0.002846   14.38  0.000634  ( 0.001632  0.005772  0.024458)
 59:   1425.19   0.005057   25.56  0.001107  ( 0.030477  0.013263 -0.001571)
 60:   1425.45   0.000547    2.76  0.000120  (-0.003244 -0.000702 -0.010426)
 61:   1428.89   0.002033   10.28  0.000444  (-0.014052  0.015675  0.000942)
 62:   1441.64   0.005293   26.75  0.001146  ( 0.001628  0.002569  0.033712)
 63:   1443.74   0.001422    7.19  0.000307  (-0.004852 -0.016472  0.003545)
 64:   1445.79   0.002620   13.24  0.000565  (-0.000912 -0.000277  0.023760)
 65:   1475.30   0.002220   11.22  0.000470  ( 0.012022 -0.018032  0.000074)
 66:   1480.67   0.000144    0.73  0.000030  ( 0.001482  0.000977 -0.005208)
 67:   1484.83   0.003187   16.11  0.000670  ( 0.025360  0.005121  0.000636)
 68:   1489.01   0.000402    2.03  0.000084  ( 0.001444  0.000497  0.009046)
 69:   1490.19   0.000326    1.65  0.000068  (-0.007805 -0.001999  0.001848)
 70:   1493.12   0.003123   15.78  0.000653  (-0.001001 -0.000859 -0.025513)
 71:   1495.36   0.000343    1.73  0.000072  (-0.004745 -0.003062  0.006300)
 72:   1496.39   0.003402   17.19  0.000709  ( 0.020481  0.017012  0.000747)
 73:   1506.28   0.002992   15.12  0.000620  ( 0.004756 -0.004169  0.024082)
 74:   1506.99   0.001010    5.10  0.000209  ( 0.009090 -0.011127 -0.001632)
 75:   1508.35   0.003369   17.02  0.000697  (-0.020181  0.016178  0.005285)
 76:   1514.97   0.000407    2.06  0.000084  ( 0.002484 -0.002888  0.008332)
 77:   1516.37   0.001112    5.62  0.000229  ( 0.008891 -0.012185 -0.001171)
 78:   1520.72   0.001146    5.79  0.000235  ( 0.000450  0.000189 -0.015326)
 79:   1634.32   0.019596   99.03  0.003742  (-0.001849 -0.061134  0.001014)
 80:   1711.79   0.004168   21.06  0.000760  (-0.000000  0.000392  0.027563)
 81:   3075.36   0.001252    6.33  0.000127  ( 0.010787  0.002298 -0.002332)
 82:   3075.43   0.000879    4.44  0.000089  (-0.008706 -0.002201 -0.002919)
 83:   3077.81   0.000807    4.08  0.000082  ( 0.001382 -0.005043  0.007381)
 84:   3077.82   0.000974    4.92  0.000099  (-0.001238  0.004206  0.008920)
 85:   3083.36   0.001488    7.52  0.000151  (-0.000725 -0.012251  0.000057)
 86:   3084.37   0.000208    1.05  0.000021  (-0.000135 -0.000293  0.004579)
 87:   3124.82   0.000117    0.59  0.000012  (-0.002347  0.002211  0.001141)
 88:   3125.55   0.000097    0.49  0.000010  (-0.002120  0.002024 -0.001037)
 89:   3150.72   0.000328    1.66  0.000032  (-0.005476 -0.001363 -0.000791)
 90:   3150.92   0.000440    2.23  0.000044  (-0.006401 -0.001602  0.000299)
 91:   3153.94   0.000376    1.90  0.000037  ( 0.000487  0.000112  0.006082)
 92:   3153.99   0.001660    8.39  0.000164  (-0.012710 -0.001594  0.000322)
 93:   3160.38   0.002356   11.90  0.000233  (-0.010776  0.009445  0.005223)
 94:   3160.59   0.004845   24.48  0.000478  (-0.002633  0.001965 -0.021623)
 95:   3170.42   0.000444    2.25  0.000044  ( 0.000904 -0.001030 -0.006470)
 96:   3170.46   0.001604    8.11  0.000158  ( 0.010189 -0.007323  0.000645)
 97:   3174.70   0.002454   12.40  0.000241  ( 0.001984  0.015209 -0.002440)
 98:   3174.92   0.001046    5.29  0.000103  ( 0.001344  0.009537  0.003177)
 99:   3185.15   0.000649    3.28  0.000064  ( 0.000013  0.007952 -0.000579)
100:   3190.89   0.000679    3.43  0.000066  ( 0.000053  0.000405  0.008142)
101:   3319.01   0.003348   16.92  0.000315  ( 0.000013 -0.000435 -0.017738)

--------------------------
THERMOCHEMISTRY AT 298.15K
--------------------------

Temperature         ... 298.15 K
Pressure            ... 1.00 atm
Total Mass          ... 181.30 AMU

Throughout the following assumptions are being made:
  (1) The electronic state is orbitally nondegenerate
  (2) There are no thermally accessible electronically excited states
  (3) Hindered rotations indicated by low frequency modes are not
      treated as such but are treated as vibrations and this may
      cause some error
  (4) All equations used are the standard statistical mechanics
      equations for an ideal gas
  (5) All vibrations are strictly harmonic

freq.      59.48  E(vib)   ...       0.51
freq.      68.42  E(vib)   ...       0.50
freq.      90.80  E(vib)   ...       0.47
freq.      97.20  E(vib)   ...       0.46
freq.     105.62  E(vib)   ...       0.45
freq.     126.06  E(vib)   ...       0.43
freq.     149.26  E(vib)   ...       0.40
freq.     212.93  E(vib)   ...       0.34
freq.     220.60  E(vib)   ...       0.33
freq.     253.14  E(vib)   ...       0.30
freq.     255.57  E(vib)   ...       0.30
freq.     281.82  E(vib)   ...       0.28
freq.     286.11  E(vib)   ...       0.27
freq.     290.61  E(vib)   ...       0.27
freq.     291.81  E(vib)   ...       0.27
freq.     320.10  E(vib)   ...       0.25
freq.     328.86  E(vib)   ...       0.24
freq.     378.03  E(vib)   ...       0.21
freq.     433.95  E(vib)   ...       0.17
freq.     459.95  E(vib)   ...       0.16
freq.     481.07  E(vib)   ...       0.15
freq.     546.32  E(vib)   ...       0.12
freq.     607.62  E(vib)   ...       0.10
freq.     616.56  E(vib)   ...       0.09
freq.     678.41  E(vib)   ...       0.08
freq.     710.84  E(vib)   ...       0.07
freq.     748.67  E(vib)   ...       0.06
freq.     794.92  E(vib)   ...       0.05
freq.     866.77  E(vib)   ...       0.04
freq.     908.82  E(vib)   ...       0.03
freq.     920.68  E(vib)   ...       0.03
freq.     954.13  E(vib)   ...       0.03
freq.     954.83  E(vib)   ...       0.03
freq.     972.66  E(vib)   ...       0.03
freq.     973.50  E(vib)   ...       0.03
freq.     985.03  E(vib)   ...       0.02
freq.    1061.50  E(vib)   ...       0.02
freq.    1068.77  E(vib)   ...       0.02
freq.    1083.66  E(vib)   ...       0.02
freq.    1109.51  E(vib)   ...       0.02
freq.    1140.38  E(vib)   ...       0.01
freq.    1161.79  E(vib)   ...       0.01
freq.    1177.39  E(vib)   ...       0.01
freq.    1180.31  E(vib)   ...       0.01
freq.    1209.28  E(vib)   ...       0.01
freq.    1224.85  E(vib)   ...       0.01
freq.    1227.15  E(vib)   ...       0.01
freq.    1254.27  E(vib)   ...       0.01
freq.    1340.03  E(vib)   ...       0.01
freq.    1371.16  E(vib)   ...       0.01
freq.    1371.48  E(vib)   ...       0.01
freq.    1397.34  E(vib)   ...       0.00
freq.    1400.69  E(vib)   ...       0.00
freq.    1425.19  E(vib)   ...       0.00
freq.    1425.45  E(vib)   ...       0.00
freq.    1428.89  E(vib)   ...       0.00
freq.    1441.64  E(vib)   ...       0.00
freq.    1443.74  E(vib)   ...       0.00
freq.    1445.79  E(vib)   ...       0.00
freq.    1475.30  E(vib)   ...       0.00
freq.    1480.67  E(vib)   ...       0.00
freq.    1484.83  E(vib)   ...       0.00
freq.    1489.01  E(vib)   ...       0.00
freq.    1490.19  E(vib)   ...       0.00
freq.    1493.12  E(vib)   ...       0.00
freq.    1495.36  E(vib)   ...       0.00
freq.    1496.39  E(vib)   ...       0.00
freq.    1506.28  E(vib)   ...       0.00
freq.    1506.99  E(vib)   ...       0.00
freq.    1508.35  E(vib)   ...       0.00
freq.    1514.97  E(vib)   ...       0.00
freq.    1516.37  E(vib)   ...       0.00
freq.    1520.72  E(vib)   ...       0.00
freq.    1634.32  E(vib)   ...       0.00
freq.    1711.79  E(vib)   ...       0.00
freq.    3075.36  E(vib)   ...       0.00
freq.    3075.43  E(vib)   ...       0.00
freq.    3077.81  E(vib)   ...       0.00
freq.    3077.82  E(vib)   ...       0.00
freq.    3083.36  E(vib)   ...       0.00
freq.    3084.37  E(vib)   ...       0.00
freq.    3124.82  E(vib)   ...       0.00
freq.    3125.55  E(vib)   ...       0.00
freq.    3150.72  E(vib)   ...       0.00
freq.    3150.92  E(vib)   ...       0.00
freq.    3153.94  E(vib)   ...       0.00
freq.    3153.99  E(vib)   ...       0.00
freq.    3160.38  E(vib)   ...       0.00
freq.    3160.59  E(vib)   ...       0.00
freq.    3170.42  E(vib)   ...       0.00
freq.    3170.46  E(vib)   ...       0.00
freq.    3174.70  E(vib)   ...       0.00
freq.    3174.92  E(vib)   ...       0.00
freq.    3185.15  E(vib)   ...       0.00
freq.    3190.89  E(vib)   ...       0.00
freq.    3319.01  E(vib)   ...       0.00

------------
INNER ENERGY
------------

The inner energy is: U= E(el) + E(ZPE) + E(vib) + E(rot) + E(trans)
    E(el)   - is the total energy from the electronic structure calculation
              = E(kin-el) + E(nuc-el) + E(el-el) + E(nuc-nuc)
    E(ZPE)  - the the zero temperature vibrational energy from the frequency calculation
    E(vib)  - the the finite temperature correction to E(ZPE) due to population
              of excited vibrational states
    E(rot)  - is the rotational thermal energy
    E(trans)- is the translational thermal energy

Summary of contributions to the inner energy U:
Electronic energy                ...   -541.20505899 Eh
Zero point energy                ...      0.31253423 Eh     196.12 kcal/mol
Thermal vibrational correction   ...      0.01249203 Eh       7.84 kcal/mol
Thermal rotational correction    ...      0.00141627 Eh       0.89 kcal/mol
Thermal translational correction ...      0.00141627 Eh       0.89 kcal/mol
-----------------------------------------------------------------------
Total thermal energy                   -540.87720019 Eh

Summary of corrections to the electronic energy:
(perhaps to be used in another calculation)
Total thermal correction                  0.01532458 Eh       9.62 kcal/mol
Non-thermal (ZPE) correction              0.31253423 Eh     196.12 kcal/mol
-----------------------------------------------------------------------
Total correction                          0.32785880 Eh     205.73 kcal/mol

--------
ENTHALPY
--------

The enthalpy is H = U + kB*T
                kB is Boltzmann's constant
Total free energy                 ...   -540.87720019 Eh
Thermal Enthalpy correction       ...      0.00094421 Eh       0.59 kcal/mol
-----------------------------------------------------------------------
Total Enthalpy                    ...   -540.87625598 Eh

Note: Only C1 symmetry has been detected, increase convergence thresholds
      if your molecule has a higher symmetry. Symmetry factor of 1.0 is
      used for the rotational entropy correction.

Rotational constants in cm-1:     0.036746     0.019212     0.014631

                             ****ORCA TERMINATED NORMALLY****
TOTAL RUN TIME: 0 days 1 hours 16 minutes 38 seconds 124 msec
