                         Program Version 5.0.4 -  RELEASE  -
|  1> # ORCA 5.0.4 - /users/bwb16179/postgrad/2024_06/pKa_Reviewer_Comments/Gas_Z=1/4_prot.inp # write input file
|  2> # Basic Mode
|  3> #
|  4> ! Opt Freq wB97X Def2-TZVP D4 SlowConv TightSCF Defgrid2 Def2/J RIJCOSX
|  5>
|  6> %PAL NPROCS 4 END
|  7>
|  8> %maxcore 4500
|  9>
| 10> %geom
| 11> Maxiter 150
| 12> END
| 13>
| 14> * xyzfile 1 1 4_prot.xyz
| 15>
| 16>                          ****END OF INPUT****
 Total Charge           Charge          ....    1
 Multiplicity           Mult            ....    1
 Number of Electrons    NEL             ....   84
Dispersion correction           -0.003972366
FINAL SINGLE POINT ENERGY      -462.548993531653
Dispersion correction            ... Starting D4
Dispersion correction           -0.003982219
FINAL SINGLE POINT ENERGY      -462.550235079272
Dispersion correction            ... Starting D4
Dispersion correction           -0.003982711
FINAL SINGLE POINT ENERGY      -462.550245520138
Dispersion correction            ... Starting D4
Dispersion correction           -0.003982713
FINAL SINGLE POINT ENERGY      -462.550248378909
Dispersion correction            ... Starting D4
                    ***********************HURRAY********************

CARTESIAN COORDINATES (ANGSTROEM)
---------------------------------
  C      0.173123    0.672721   -1.268515
  C      0.108756   -0.679153   -1.277054
  N      0.059779    1.075580    0.039871
  N     -0.042498   -1.086197    0.026246
  C     -0.068713   -0.006413    0.795717
  H      0.292084    1.371217   -2.079175
  H      0.160101   -1.374335   -2.097549
  C      0.076539    2.473621    0.531943
  C     -0.172848   -2.484921    0.500022
  H     -0.033927    2.385422    1.614863
  H     -0.246417   -2.401883    1.586457
  H     -0.178886   -0.008019    1.868710
  C     -1.108988    3.236933   -0.035098
  C     -1.450786   -3.099018   -0.047040
  C      1.072456   -3.276134    0.136934
  C      1.413226    3.121160    0.210453
  H     -1.027592    3.345966   -1.118281
  H     -1.408166   -3.197325   -1.133508
  H      1.176989   -3.376813   -0.944994
  H      1.551159    3.229699   -0.866998
  H     -2.052282    2.742230    0.197786
  H     -2.325873   -2.504582    0.217089
  H      1.974286   -2.810285    0.534974
  H      2.245789    2.544576    0.614459
  H     -1.132426    4.236944    0.396934
  H     -1.577391   -4.097353    0.370915
  H      0.994212   -4.279021    0.555765
  H      1.444353    4.117823    0.649715

 Multiplicity           Mult            ....    1
 Number of Electrons    NEL             ....   84
 Basis Dimension        Dim             ....  443

ORBITAL ENERGIES
----------------

  NO   OCC          E(Eh)            E(eV)
   0   2.0000     -14.639518      -398.3615
   1   2.0000     -14.639485      -398.3606
   2   2.0000     -10.511375      -286.0291
   3   2.0000     -10.462748      -284.7058
   4   2.0000     -10.462733      -284.7054
   5   2.0000     -10.461402      -284.6692
   6   2.0000     -10.460668      -284.6492
   7   2.0000     -10.386166      -282.6220
   8   2.0000     -10.386127      -282.6209
   9   2.0000     -10.386114      -282.6205
  10   2.0000     -10.386023      -282.6181
  11   2.0000      -1.366715       -37.1902
  12   2.0000      -1.245337       -33.8873
  13   2.0000      -1.109562       -30.1927
  14   2.0000      -1.071633       -29.1606
  15   2.0000      -1.058180       -28.7945
  16   2.0000      -0.963625       -26.2216
  17   2.0000      -0.963000       -26.2046
  18   2.0000      -0.936657       -25.4877
  19   2.0000      -0.936276       -25.4774
  20   2.0000      -0.886189       -24.1144
  21   2.0000      -0.852751       -23.2045
  22   2.0000      -0.811808       -22.0904
  23   2.0000      -0.770463       -20.9654
  24   2.0000      -0.759549       -20.6684
  25   2.0000      -0.733220       -19.9519
  26   2.0000      -0.727797       -19.8044
  27   2.0000      -0.711795       -19.3689
  28   2.0000      -0.699409       -19.0319
  29   2.0000      -0.698405       -19.0046
  30   2.0000      -0.692814       -18.8524
  31   2.0000      -0.654585       -17.8122
  32   2.0000      -0.638036       -17.3618
  33   2.0000      -0.636280       -17.3140
  34   2.0000      -0.630661       -17.1612
  35   2.0000      -0.622677       -16.9439
  36   2.0000      -0.606577       -16.5058
  37   2.0000      -0.598443       -16.2845
  38   2.0000      -0.597460       -16.2577
  39   2.0000      -0.593504       -16.1501
  40   2.0000      -0.552407       -15.0318
  41   2.0000      -0.519251       -14.1295
  42   0.0000      -0.085762        -2.3337
  43   0.0000      -0.053023        -1.4428
  44   0.0000      -0.021067        -0.5733
  45   0.0000      -0.007959        -0.2166
  46   0.0000      -0.000948        -0.0258

MULLIKEN ATOMIC CHARGES
-----------------------
   0 C :   -0.105520
   1 C :   -0.104950
   2 N :   -0.019197
   3 N :   -0.020007
   4 C :    0.107005
   5 H :    0.228976
   6 H :    0.228979
   7 C :   -0.105987
   8 C :   -0.104593
   9 H :    0.123778
  10 H :    0.123833
  11 H :    0.238745
  12 C :   -0.337301
  13 C :   -0.337478
  14 C :   -0.339069
  15 C :   -0.337785
  16 H :    0.132594
  17 H :    0.133218
  18 H :    0.131871
  19 H :    0.132243
  20 H :    0.144212
  21 H :    0.143603
  22 H :    0.145577
  23 H :    0.144639
  24 H :    0.163155
  25 H :    0.163103
  26 H :    0.163100
  27 H :    0.163259
Sum of atomic charges:    1.0000000

LOEWDIN ATOMIC CHARGES
----------------------
   0 C :   -0.143537
   1 C :   -0.143679
   2 N :    0.302986
   3 N :    0.303026
   4 C :   -0.148735
   5 H :    0.160393
   6 H :    0.160374
   7 C :   -0.277775
   8 C :   -0.277671
   9 H :    0.160387
  10 H :    0.160393
  11 H :    0.163382
  12 C :   -0.257920
  13 C :   -0.258012
  14 C :   -0.257952
  15 C :   -0.257937
  16 H :    0.129602
  17 H :    0.129797
  18 H :    0.129345
  19 H :    0.129541
  20 H :    0.131198
  21 H :    0.131028
  22 H :    0.131497
  23 H :    0.131301
  24 H :    0.142198
  25 H :    0.142136
  26 H :    0.142387
  27 H :    0.142248

  Mayer bond orders larger than 0.100000
B(  0-C ,  1-C ) :   1.7503 B(  0-C ,  2-N ) :   1.1468 B(  0-C ,  5-H ) :   0.9170
B(  1-C ,  3-N ) :   1.1470 B(  1-C ,  6-H ) :   0.9169 B(  2-N ,  4-C ) :   1.3921
B(  2-N ,  7-C ) :   0.8259 B(  3-N ,  4-C ) :   1.3921 B(  3-N ,  8-C ) :   0.8259
B(  4-C , 11-H ) :   0.9053 B(  7-C ,  9-H ) :   0.9648 B(  7-C , 12-C ) :   0.9942
B(  7-C , 15-C ) :   0.9943 B(  8-C , 10-H ) :   0.9648 B(  8-C , 13-C ) :   0.9947
B(  8-C , 14-C ) :   0.9934 B( 12-C , 16-H ) :   0.9548 B( 12-C , 20-H ) :   0.9709
B( 12-C , 24-H ) :   0.9709 B( 13-C , 17-H ) :   0.9547 B( 13-C , 21-H ) :   0.9706
B( 13-C , 25-H ) :   0.9711 B( 14-C , 18-H ) :   0.9552 B( 14-C , 22-H ) :   0.9711
B( 14-C , 26-H ) :   0.9704 B( 15-C , 19-H ) :   0.9547 B( 15-C , 23-H ) :   0.9710
B( 15-C , 27-H ) :   0.9707

Dispersion correction           -0.003982619
FINAL SINGLE POINT ENERGY      -462.550248304126

DIPOLE MOMENT
-------------
                                X             Y             Z
Electronic contribution:      0.17459      -0.00436      -0.48238
Nuclear contribution   :     -0.19858       0.00387       0.77603
                        -----------------------------------------
Total Dipole Moment    :     -0.02398      -0.00050       0.29365
                        -----------------------------------------
Magnitude (a.u.)       :      0.29462
Magnitude (Debye)      :      0.74887

Dispersion correction in the Hessian             ... Starting D4

VIBRATIONAL FREQUENCIES
-----------------------

Scaling factor for frequencies =  1.000000000  (already applied!)

   0:         0.00 cm**-1
   1:         0.00 cm**-1
   2:         0.00 cm**-1
   3:         0.00 cm**-1
   4:         0.00 cm**-1
   5:         0.00 cm**-1
   6:        27.08 cm**-1
   7:        33.73 cm**-1
   8:       117.68 cm**-1
   9:       149.91 cm**-1
  10:       155.69 cm**-1
  11:       217.93 cm**-1
  12:       240.00 cm**-1
  13:       251.77 cm**-1
  14:       264.82 cm**-1
  15:       276.95 cm**-1
  16:       298.87 cm**-1
  17:       356.49 cm**-1
  18:       396.50 cm**-1
  19:       440.66 cm**-1
  20:       452.78 cm**-1
  21:       550.26 cm**-1
  22:       625.09 cm**-1
  23:       666.94 cm**-1
  24:       684.49 cm**-1
  25:       688.11 cm**-1
  26:       784.12 cm**-1
  27:       889.11 cm**-1
  28:       907.61 cm**-1
  29:       912.23 cm**-1
  30:       922.16 cm**-1
  31:       948.44 cm**-1
  32:       952.29 cm**-1
  33:       967.07 cm**-1
  34:       974.21 cm**-1
  35:      1039.51 cm**-1
  36:      1048.81 cm**-1
  37:      1099.97 cm**-1
  38:      1116.30 cm**-1
  39:      1132.35 cm**-1
  40:      1172.14 cm**-1
  41:      1174.52 cm**-1
  42:      1183.48 cm**-1
  43:      1209.49 cm**-1
  44:      1222.54 cm**-1
  45:      1283.51 cm**-1
  46:      1338.17 cm**-1
  47:      1361.30 cm**-1
  48:      1362.76 cm**-1
  49:      1373.93 cm**-1
  50:      1402.29 cm**-1
  51:      1424.87 cm**-1
  52:      1428.51 cm**-1
  53:      1441.46 cm**-1
  54:      1445.94 cm**-1
  55:      1481.25 cm**-1
  56:      1483.27 cm**-1
  57:      1485.41 cm**-1
  58:      1486.49 cm**-1
  59:      1491.81 cm**-1
  60:      1494.92 cm**-1
  61:      1505.84 cm**-1
  62:      1509.91 cm**-1
  63:      1511.64 cm**-1
  64:      1514.72 cm**-1
  65:      1629.03 cm**-1
  66:      1634.13 cm**-1
  67:      3078.78 cm**-1
  68:      3079.04 cm**-1
  69:      3080.85 cm**-1
  70:      3080.91 cm**-1
  71:      3108.79 cm**-1
  72:      3109.04 cm**-1
  73:      3158.34 cm**-1
  74:      3158.48 cm**-1
  75:      3163.38 cm**-1
  76:      3163.52 cm**-1
  77:      3172.64 cm**-1
  78:      3172.94 cm**-1
  79:      3175.96 cm**-1
  80:      3176.21 cm**-1
  81:      3296.07 cm**-1
  82:      3304.25 cm**-1
  83:      3321.87 cm**-1

IR SPECTRUM
-----------

 Mode   freq       eps      Int      T**2         TX        TY        TZ
       cm**-1   L/(mol*cm) km/mol    a.u.
----------------------------------------------------------------------------
  6:     27.08   0.000002    0.01  0.000023  (-0.004767 -0.000146 -0.000670)
  7:     33.73   0.000001    0.01  0.000012  (-0.003393  0.000727 -0.000078)
  8:    117.68   0.000060    0.30  0.000158  ( 0.012425 -0.001104  0.001556)
  9:    149.91   0.000001    0.01  0.000002  ( 0.000987 -0.000132  0.001087)
 10:    155.69   0.000055    0.28  0.000110  (-0.001106  0.000154  0.010406)
 11:    217.93   0.000001    0.00  0.000001  ( 0.000361  0.000045  0.000838)
 12:    240.00   0.000001    0.00  0.000001  ( 0.000776 -0.000052  0.000685)
 13:    251.77   0.000013    0.06  0.000016  ( 0.000776  0.002675 -0.002828)
 14:    264.82   0.000009    0.04  0.000010  ( 0.000615 -0.001022 -0.002959)
 15:    276.95   0.000026    0.13  0.000029  ( 0.001097 -0.004098 -0.003387)
 16:    298.87   0.000069    0.35  0.000072  ( 0.000854  0.008399 -0.000965)
 17:    356.49   0.000033    0.17  0.000029  ( 0.001004  0.005314  0.000172)
 18:    396.50   0.000280    1.41  0.000220  ( 0.014699 -0.001420  0.001413)
 19:    440.66   0.000001    0.00  0.000001  ( 0.000112  0.000559  0.000440)
 20:    452.78   0.000035    0.18  0.000024  ( 0.000531  0.000145 -0.004911)
 21:    550.26   0.000252    1.27  0.000143  ( 0.000254  0.011950  0.000087)
 22:    625.09   0.000019    0.10  0.000010  (-0.001054  0.001021  0.002743)
 23:    666.94   0.001794    9.07  0.000840  ( 0.002687  0.028851  0.000105)
 24:    684.49   0.006720   33.96  0.003064  ( 0.054914 -0.003771  0.005843)
 25:    688.11   0.000038    0.19  0.000017  ( 0.003869  0.001389  0.000386)
 26:    784.12   0.005478   27.68  0.002180  ( 0.046334 -0.002468  0.005223)
 27:    889.11   0.004488   22.68  0.001575  ( 0.039416 -0.001524  0.004395)
 28:    907.61   0.000214    1.08  0.000074  (-0.000205 -0.008459 -0.001407)
 29:    912.23   0.000216    1.09  0.000074  ( 0.000437  0.001296 -0.008480)
 30:    922.16   0.000007    0.03  0.000002  (-0.001477 -0.000057  0.000140)
 31:    948.44   0.000171    0.86  0.000056  ( 0.007434 -0.000102  0.000950)
 32:    952.29   0.000201    1.02  0.000066  ( 0.008104  0.000170  0.000426)
 33:    967.07   0.000076    0.39  0.000025  ( 0.004943 -0.000177  0.000468)
 34:    974.21   0.000078    0.39  0.000025  ( 0.004966  0.000532 -0.000219)
 35:   1039.51   0.001013    5.12  0.000304  (-0.000842 -0.017415  0.000064)
 36:   1048.81   0.000188    0.95  0.000056  (-0.000877  0.000598  0.007401)
 37:   1099.97   0.000046    0.23  0.000013  ( 0.000184 -0.003286 -0.001465)
 38:   1116.30   0.000887    4.48  0.000248  (-0.001806  0.000138  0.015640)
 39:   1132.35   0.002388   12.07  0.000658  (-0.003331 -0.000014  0.025438)
 40:   1172.14   0.000093    0.47  0.000025  ( 0.004704 -0.001566  0.000320)
 41:   1174.52   0.001611    8.14  0.000428  ( 0.020527 -0.001076  0.002369)
 42:   1183.48   0.021380  108.05  0.005638  (-0.004013 -0.074975 -0.000497)
 43:   1209.49   0.000119    0.60  0.000031  ( 0.000175 -0.005045 -0.002272)
 44:   1222.54   0.014795   74.77  0.003776  (-0.002900 -0.061384 -0.000062)
 45:   1283.51   0.003909   19.75  0.000950  (-0.001828 -0.030774 -0.000239)
 46:   1338.17   0.000706    3.57  0.000165  ( 0.001854  0.000008 -0.012700)
 47:   1361.30   0.000012    0.06  0.000003  (-0.001606  0.000149 -0.000202)
 48:   1362.76   0.000163    0.82  0.000037  ( 0.006077 -0.000292  0.000495)
 49:   1373.93   0.005284   26.70  0.001200  (-0.002091 -0.034579 -0.000229)
 50:   1402.29   0.000893    4.51  0.000199  ( 0.001095 -0.000421 -0.014048)
 51:   1424.87   0.002712   13.70  0.000594  ( 0.024222 -0.000943  0.002517)
 52:   1428.51   0.003474   17.56  0.000759  ( 0.027099 -0.004944  0.000452)
 53:   1441.46   0.001763    8.91  0.000382  (-0.003026 -0.017202  0.008754)
 54:   1445.94   0.001555    7.86  0.000336  ( 0.003878  0.010648  0.014392)
 55:   1481.25   0.000469    2.37  0.000099  (-0.001409 -0.000022  0.009842)
 56:   1483.27   0.000243    1.23  0.000051  ( 0.000040 -0.005789 -0.004186)
 57:   1485.41   0.005552   28.06  0.001166  (-0.002848 -0.033958  0.002256)
 58:   1486.49   0.001002    5.06  0.000210  ( 0.000318 -0.014103 -0.003374)
 59:   1491.81   0.000694    3.51  0.000145  (-0.011902  0.001413 -0.001242)
 60:   1494.92   0.000820    4.14  0.000171  (-0.012752 -0.000087 -0.002926)
 61:   1505.84   0.004281   21.63  0.000887  (-0.002285  0.003665  0.029470)
 62:   1509.91   0.003983   20.13  0.000823  ( 0.003116  0.002154 -0.028440)
 63:   1511.64   0.000230    1.16  0.000048  (-0.000328  0.006801  0.001067)
 64:   1514.72   0.000818    4.14  0.000169  (-0.001537 -0.003491  0.012411)
 65:   1629.03   0.024270  122.65  0.004649  (-0.003464 -0.068092 -0.000878)
 66:   1634.13   0.002106   10.64  0.000402  (-0.002157 -0.001481  0.019883)
 67:   3078.78   0.000855    4.32  0.000087  (-0.009004  0.000446 -0.002318)
 68:   3079.04   0.001021    5.16  0.000103  (-0.010051  0.000519 -0.001462)
 69:   3080.85   0.000112    0.57  0.000011  (-0.000076  0.001232 -0.003133)
 70:   3080.91   0.000922    4.66  0.000093  (-0.003130  0.000557  0.009124)
 71:   3108.79   0.000313    1.58  0.000031  ( 0.000641  0.001399 -0.005394)
 72:   3109.04   0.000940    4.75  0.000094  (-0.000680  0.000736  0.009663)
 73:   3158.34   0.000861    4.35  0.000085  (-0.009109  0.000967  0.001083)
 74:   3158.48   0.000898    4.54  0.000089  ( 0.009406 -0.000425  0.000328)
 75:   3163.38   0.000165    0.83  0.000016  ( 0.000845  0.003901  0.000544)
 76:   3163.52   0.006003   30.34  0.000592  (-0.001373 -0.000301  0.024293)
 77:   3172.64   0.000620    3.13  0.000061  (-0.007732  0.000802 -0.000759)
 78:   3172.94   0.000831    4.20  0.000082  (-0.008997  0.000757 -0.000480)
 79:   3175.96   0.002125   10.74  0.000209  (-0.001378 -0.014045  0.003107)
 80:   3176.21   0.001175    5.94  0.000115  ( 0.000322  0.009679  0.004653)
 81:   3296.07   0.004199   21.22  0.000398  (-0.002007 -0.000056  0.019837)
 82:   3304.25   0.002150   10.87  0.000203  ( 0.000708  0.014234 -0.000043)
 83:   3321.87   0.001755    8.87  0.000165  (-0.001404  0.000104  0.012764)

--------------------------
THERMOCHEMISTRY AT 298.15K
--------------------------

Temperature         ... 298.15 K
Pressure            ... 1.00 atm
Total Mass          ... 153.25 AMU

Throughout the following assumptions are being made:
  (1) The electronic state is orbitally nondegenerate
  (2) There are no thermally accessible electronically excited states
  (3) Hindered rotations indicated by low frequency modes are not
      treated as such but are treated as vibrations and this may
      cause some error
  (4) All equations used are the standard statistical mechanics
      equations for an ideal gas
  (5) All vibrations are strictly harmonic

freq.      27.08  E(vib)   ...       0.55
freq.      33.73  E(vib)   ...       0.55
freq.     117.68  E(vib)   ...       0.44
freq.     149.91  E(vib)   ...       0.40
freq.     155.69  E(vib)   ...       0.40
freq.     217.93  E(vib)   ...       0.33
freq.     240.00  E(vib)   ...       0.31
freq.     251.77  E(vib)   ...       0.30
freq.     264.82  E(vib)   ...       0.29
freq.     276.95  E(vib)   ...       0.28
freq.     298.87  E(vib)   ...       0.26
freq.     356.49  E(vib)   ...       0.22
freq.     396.50  E(vib)   ...       0.20
freq.     440.66  E(vib)   ...       0.17
freq.     452.78  E(vib)   ...       0.16
freq.     550.26  E(vib)   ...       0.12
freq.     625.09  E(vib)   ...       0.09
freq.     666.94  E(vib)   ...       0.08
freq.     684.49  E(vib)   ...       0.07
freq.     688.11  E(vib)   ...       0.07
freq.     784.12  E(vib)   ...       0.05
freq.     889.11  E(vib)   ...       0.04
freq.     907.61  E(vib)   ...       0.03
freq.     912.23  E(vib)   ...       0.03
freq.     922.16  E(vib)   ...       0.03
freq.     948.44  E(vib)   ...       0.03
freq.     952.29  E(vib)   ...       0.03
freq.     967.07  E(vib)   ...       0.03
freq.     974.21  E(vib)   ...       0.03
freq.    1039.51  E(vib)   ...       0.02
freq.    1048.81  E(vib)   ...       0.02
freq.    1099.97  E(vib)   ...       0.02
freq.    1116.30  E(vib)   ...       0.01
freq.    1132.35  E(vib)   ...       0.01
freq.    1172.14  E(vib)   ...       0.01
freq.    1174.52  E(vib)   ...       0.01
freq.    1183.48  E(vib)   ...       0.01
freq.    1209.49  E(vib)   ...       0.01
freq.    1222.54  E(vib)   ...       0.01
freq.    1283.51  E(vib)   ...       0.01
freq.    1338.17  E(vib)   ...       0.01
freq.    1361.30  E(vib)   ...       0.01
freq.    1362.76  E(vib)   ...       0.01
freq.    1373.93  E(vib)   ...       0.01
freq.    1402.29  E(vib)   ...       0.00
freq.    1424.87  E(vib)   ...       0.00
freq.    1428.51  E(vib)   ...       0.00
freq.    1441.46  E(vib)   ...       0.00
freq.    1445.94  E(vib)   ...       0.00
freq.    1481.25  E(vib)   ...       0.00
freq.    1483.27  E(vib)   ...       0.00
freq.    1485.41  E(vib)   ...       0.00
freq.    1486.49  E(vib)   ...       0.00
freq.    1491.81  E(vib)   ...       0.00
freq.    1494.92  E(vib)   ...       0.00
freq.    1505.84  E(vib)   ...       0.00
freq.    1509.91  E(vib)   ...       0.00
freq.    1511.64  E(vib)   ...       0.00
freq.    1514.72  E(vib)   ...       0.00
freq.    1629.03  E(vib)   ...       0.00
freq.    1634.13  E(vib)   ...       0.00
freq.    3078.78  E(vib)   ...       0.00
freq.    3079.04  E(vib)   ...       0.00
freq.    3080.85  E(vib)   ...       0.00
freq.    3080.91  E(vib)   ...       0.00
freq.    3108.79  E(vib)   ...       0.00
freq.    3109.04  E(vib)   ...       0.00
freq.    3158.34  E(vib)   ...       0.00
freq.    3158.48  E(vib)   ...       0.00
freq.    3163.38  E(vib)   ...       0.00
freq.    3163.52  E(vib)   ...       0.00
freq.    3172.64  E(vib)   ...       0.00
freq.    3172.94  E(vib)   ...       0.00
freq.    3175.96  E(vib)   ...       0.00
freq.    3176.21  E(vib)   ...       0.00
freq.    3296.07  E(vib)   ...       0.00
freq.    3304.25  E(vib)   ...       0.00
freq.    3321.87  E(vib)   ...       0.00

------------
INNER ENERGY
------------

The inner energy is: U= E(el) + E(ZPE) + E(vib) + E(rot) + E(trans)
    E(el)   - is the total energy from the electronic structure calculation
              = E(kin-el) + E(nuc-el) + E(el-el) + E(nuc-nuc)
    E(ZPE)  - the the zero temperature vibrational energy from the frequency calculation
    E(vib)  - the the finite temperature correction to E(ZPE) due to population
              of excited vibrational states
    E(rot)  - is the rotational thermal energy
    E(trans)- is the translational thermal energy

Summary of contributions to the inner energy U:
Electronic energy                ...   -462.55024830 Eh
Zero point energy                ...      0.25616703 Eh     160.75 kcal/mol
Thermal vibrational correction   ...      0.00930654 Eh       5.84 kcal/mol
Thermal rotational correction    ...      0.00141627 Eh       0.89 kcal/mol
Thermal translational correction ...      0.00141627 Eh       0.89 kcal/mol
-----------------------------------------------------------------------
Total thermal energy                   -462.28194219 Eh

Summary of corrections to the electronic energy:
(perhaps to be used in another calculation)
Total thermal correction                  0.01213908 Eh       7.62 kcal/mol
Non-thermal (ZPE) correction              0.25616703 Eh     160.75 kcal/mol
-----------------------------------------------------------------------
Total correction                          0.26830611 Eh     168.36 kcal/mol

--------
ENTHALPY
--------

The enthalpy is H = U + kB*T
                kB is Boltzmann's constant
Total free energy                 ...   -462.28194219 Eh
Thermal Enthalpy correction       ...      0.00094421 Eh       0.59 kcal/mol
-----------------------------------------------------------------------
Total Enthalpy                    ...   -462.28099798 Eh

Note: Only C1 symmetry has been detected, increase convergence thresholds
      if your molecule has a higher symmetry. Symmetry factor of 1.0 is
      used for the rotational entropy correction.

Note: Rotational entropy computed according to Herzberg
Infrared and Raman Spectra, Chapter V,1, Van Nostrand Reinhold, 1945
Point Group:  C1, Symmetry Number:   1
Rotational constants in cm-1:     0.090268     0.018415     0.017780

Vibrational entropy computed according to the QRRHO of S. Grimme
Chem.Eur.J. 2012 18 9955

-------
ENTROPY
-------

The entropy contributions are T*S = T*(S(el)+S(vib)+S(rot)+S(trans))
     S(el)   - electronic entropy
     S(vib)  - vibrational entropy
     S(rot)  - rotational entropy

                             ****ORCA TERMINATED NORMALLY****
TOTAL RUN TIME: 0 days 0 hours 46 minutes 14 seconds 154 msec
