                         Program Version 5.0.3 -  RELEASE  -
|  1> # ORCAForces - ../2023_02/pKa_prediction/Yates_carbene_xyzs/Our_level/Uncharged/Water/2/MeH_Water.inp
|  2> # Basic Mode
|  3> #
|  4> ! Opt FREQ wB97X D4 Def2-SVP SlowConv TightSCF DEFGRID2 Def2/J RIJCOSX CPCM(Water)
|  5>
|  6> %maxcore 4500
|  7>
|  8> %PAL NPROCS 4 END
|  9>
| 10> %geom
| 11> Maxiter 150
| 12> END
| 13>
| 14> * xyzfile 0 1 MeH.xyz
| 15>
| 16>                          ****END OF INPUT****
 Total Charge           Charge          ....    0
 Multiplicity           Mult            ....    1
 Number of Electrons    NEL             ....   52
Dispersion correction           -0.001726740
FINAL SINGLE POINT ENERGY      -304.512026601307
Dispersion correction            ... Starting D4
Dispersion correction           -0.001726968
FINAL SINGLE POINT ENERGY      -304.512735047416
Dispersion correction            ... Starting D4
Dispersion correction           -0.001727278
FINAL SINGLE POINT ENERGY      -304.512791729463
Dispersion correction            ... Starting D4
Dispersion correction           -0.001727333
FINAL SINGLE POINT ENERGY      -304.512812039954
Dispersion correction            ... Starting D4
Dispersion correction           -0.001727251
FINAL SINGLE POINT ENERGY      -304.512813527281
Dispersion correction            ... Starting D4
                    ***********************HURRAY********************

CARTESIAN COORDINATES (ANGSTROEM)
---------------------------------
  C     -0.000000    0.677842   -1.193646
  C     -0.000001   -0.677842   -1.193646
  N     -0.000000    1.061586    0.137045
  N     -0.000000   -1.061586    0.137045
  C     -0.000000    0.000000    0.987229
  H      0.000000    1.393293   -2.014719
  H     -0.000001   -1.393293   -2.014719
  C      0.000000    2.446994    0.565798
  C      0.000000   -2.446994    0.565798
  H     -0.894579    2.968333    0.194027
  H     -0.894579   -2.968332    0.194028
  H      0.894580   -2.968332    0.194028
  H      0.894580    2.968332    0.194029
  H     -0.000001    2.468747    1.662105
  H      0.000000   -2.468748    1.662105

 Multiplicity           Mult            ....    1
 Number of Electrons    NEL             ....   52
 Basis Dimension        Dim             ....  138

ORBITAL ENERGIES
----------------

  NO   OCC          E(Eh)            E(eV)
   0   2.0000     -14.450740      -393.2246
   1   2.0000     -14.450738      -393.2246
   2   2.0000     -10.300339      -280.2865
   3   2.0000     -10.300308      -280.2856
   4   2.0000     -10.294852      -280.1372
   5   2.0000     -10.294273      -280.1214
   6   2.0000     -10.277212      -279.6572
   7   2.0000      -1.148113       -31.2417
   8   2.0000      -1.034750       -28.1570
   9   2.0000      -0.893674       -24.3181
  10   2.0000      -0.845919       -23.0186
  11   2.0000      -0.797442       -21.6995
  12   2.0000      -0.710517       -19.3342
  13   2.0000      -0.679627       -18.4936
  14   2.0000      -0.631842       -17.1933
  15   2.0000      -0.589527       -16.0418
  16   2.0000      -0.558532       -15.1984
  17   2.0000      -0.548631       -14.9290
  18   2.0000      -0.538653       -14.6575
  19   2.0000      -0.537373       -14.6227
  20   2.0000      -0.491621       -13.3777
  21   2.0000      -0.483328       -13.1520
  22   2.0000      -0.482212       -13.1217
  23   2.0000      -0.371253       -10.1023
  24   2.0000      -0.326257        -8.8779
  25   2.0000      -0.325924        -8.8688
  26   0.0000       0.119630         3.2553
  27   0.0000       0.131788         3.5861
  28   0.0000       0.171323         4.6619
  29   0.0000       0.172784         4.7017
  30   0.0000       0.202747         5.5170

MULLIKEN ATOMIC CHARGES
-----------------------
   0 C :    0.019262
   1 C :    0.019263
   2 N :   -0.239633
   3 N :   -0.239633
   4 C :   -0.216941
   5 H :    0.064475
   6 H :    0.064475
   7 C :    0.092269
   8 C :    0.092268
   9 H :    0.060342
  10 H :    0.060342
  11 H :    0.060342
  12 H :    0.060342
  13 H :    0.051414
  14 H :    0.051414
Sum of atomic charges:   -0.0000000

LOEWDIN ATOMIC CHARGES
----------------------
   0 C :   -0.034336
   1 C :   -0.034336
   2 N :    0.020064
   3 N :    0.020064
   4 C :   -0.324455
   5 H :    0.041935
   6 H :    0.041935
   7 C :    0.030769
   8 C :    0.030769
   9 H :    0.034487
  10 H :    0.034487
  11 H :    0.034487
  12 H :    0.034487
  13 H :    0.034821
  14 H :    0.034821

  Mayer bond orders larger than 0.100000
B(  0-C ,  1-C ) :   1.6273 B(  0-C ,  2-N ) :   1.1329 B(  0-C ,  5-H ) :   0.9916
B(  1-C ,  3-N ) :   1.1329 B(  1-C ,  6-H ) :   0.9916 B(  2-N ,  4-C ) :   1.2461
B(  2-N ,  7-C ) :   0.9450 B(  3-N ,  4-C ) :   1.2461 B(  3-N ,  8-C ) :   0.9450
B(  7-C ,  9-H ) :   0.9788 B(  7-C , 12-H ) :   0.9788 B(  7-C , 13-H ) :   0.9732
B(  8-C , 10-H ) :   0.9788 B(  8-C , 11-H ) :   0.9788 B(  8-C , 14-H ) :   0.9732

Dispersion correction           -0.001727215
FINAL SINGLE POINT ENERGY      -304.512813734964

DIPOLE MOMENT
-------------
                                X             Y             Z
Electronic contribution:     -0.00000      -0.00000      -1.44397
Nuclear contribution   :      0.00000       0.00000       0.01437
                        -----------------------------------------
Total Dipole Moment    :      0.00000      -0.00000      -1.42960
                        -----------------------------------------
Magnitude (a.u.)       :      1.42960
Magnitude (Debye)      :      3.63375

Dispersion correction in the Hessian             ... Starting D4

VIBRATIONAL FREQUENCIES
-----------------------

Scaling factor for frequencies =  1.000000000  (already applied!)

   0:         0.00 cm**-1
   1:         0.00 cm**-1
   2:         0.00 cm**-1
   3:         0.00 cm**-1
   4:         0.00 cm**-1
   5:         0.00 cm**-1
   6:        59.78 cm**-1
   7:        61.90 cm**-1
   8:       188.91 cm**-1
   9:       275.03 cm**-1
  10:       289.91 cm**-1
  11:       442.39 cm**-1
  12:       630.77 cm**-1
  13:       638.13 cm**-1
  14:       641.67 cm**-1
  15:       746.39 cm**-1
  16:       763.75 cm**-1
  17:       879.41 cm**-1
  18:      1023.47 cm**-1
  19:      1036.49 cm**-1
  20:      1077.81 cm**-1
  21:      1089.91 cm**-1
  22:      1098.03 cm**-1
  23:      1144.15 cm**-1
  24:      1144.27 cm**-1
  25:      1237.82 cm**-1
  26:      1381.24 cm**-1
  27:      1409.06 cm**-1
  28:      1421.16 cm**-1
  29:      1422.85 cm**-1
  30:      1449.55 cm**-1
  31:      1449.96 cm**-1
  32:      1450.64 cm**-1
  33:      1475.85 cm**-1
  34:      1481.67 cm**-1
  35:      1512.57 cm**-1
  36:      1661.04 cm**-1
  37:      3076.57 cm**-1
  38:      3077.55 cm**-1
  39:      3174.95 cm**-1
  40:      3174.96 cm**-1
  41:      3215.12 cm**-1
  42:      3215.27 cm**-1
  43:      3281.08 cm**-1
  44:      3302.15 cm**-1

IR SPECTRUM
-----------

 Mode   freq       eps      Int      T**2         TX        TY        TZ
       cm**-1   L/(mol*cm) km/mol    a.u.
----------------------------------------------------------------------------
  6:     59.78   0.000000    0.00  0.000000  ( 0.000010 -0.000000  0.000000)
  7:     61.90   0.000016    0.08  0.000082  (-0.009073 -0.000000  0.000000)
  8:    188.91   0.006310   31.89  0.010423  (-0.102093  0.000000  0.000000)
  9:    275.03   0.000000    0.00  0.000000  ( 0.000000 -0.000000  0.000000)
 10:    289.91   0.001332    6.73  0.001434  (-0.000000 -0.000000 -0.037872)
 11:    442.39   0.003073   15.53  0.002168  ( 0.000000  0.046560  0.000000)
 12:    630.77   0.000580    2.93  0.000287  (-0.000000  0.000000 -0.016942)
 13:    638.13   0.000000    0.00  0.000000  (-0.000000  0.000000 -0.000000)
 14:    641.67   0.000097    0.49  0.000047  ( 0.006872  0.000000 -0.000000)
 15:    746.39   0.015702   79.35  0.006565  ( 0.081024  0.000000  0.000000)
 16:    763.75   0.005187   26.21  0.002119  ( 0.000000 -0.046035  0.000000)
 17:    879.41   0.000000    0.00  0.000000  ( 0.000000  0.000000  0.000000)
 18:   1023.47   0.000442    2.23  0.000135  ( 0.000000 -0.011609 -0.000000)
 19:   1036.49   0.000033    0.17  0.000010  ( 0.000000 -0.000000 -0.003151)
 20:   1077.81   0.001963    9.92  0.000568  (-0.000000  0.000000 -0.023841)
 21:   1089.91   0.000066    0.33  0.000019  ( 0.000000  0.004357 -0.000000)
 22:   1098.03   0.002110   10.66  0.000600  (-0.000000  0.000000 -0.024489)
 23:   1144.15   0.000013    0.07  0.000004  (-0.001883  0.000000 -0.000000)
 24:   1144.27   0.000000    0.00  0.000000  ( 0.000001  0.000000 -0.000000)
 25:   1237.82   0.013710   69.29  0.003457  ( 0.000000 -0.058792  0.000000)
 26:   1381.24   0.000649    3.28  0.000147  (-0.000000  0.012105 -0.000000)
 27:   1409.06   0.000008    0.04  0.000002  (-0.000000  0.000000  0.001303)
 28:   1421.16   0.005599   28.29  0.001229  ( 0.000000  0.035063  0.000001)
 29:   1422.85   0.001476    7.46  0.000324  ( 0.000000  0.000001 -0.017994)
 30:   1449.55   0.000130    0.66  0.000028  (-0.000000  0.000000  0.005300)
 31:   1449.96   0.000000    0.00  0.000000  ( 0.000002  0.000000  0.000000)
 32:   1450.64   0.006210   31.38  0.001336  ( 0.036551 -0.000000 -0.000000)
 33:   1475.85   0.002770   14.00  0.000586  (-0.000000 -0.024201  0.000001)
 34:   1481.67   0.008403   42.46  0.001770  ( 0.000000  0.000000  0.042068)
 35:   1512.57   0.016491   83.34  0.003402  (-0.000000  0.058330  0.000000)
 36:   1661.04   0.000014    0.07  0.000003  ( 0.000000 -0.000000  0.001641)
 37:   3076.57   0.021003  106.14  0.002130  ( 0.000000  0.046156  0.000000)
 38:   3077.55   0.000108    0.55  0.000011  ( 0.000000 -0.000001  0.003312)
 39:   3174.95   0.006523   32.97  0.000641  ( 0.025321 -0.000000 -0.000000)
 40:   3174.96   0.000001    0.01  0.000000  ( 0.000327  0.000000  0.000000)
 41:   3215.12   0.001405    7.10  0.000136  ( 0.000000  0.000001  0.011680)
 42:   3215.27   0.000166    0.84  0.000016  ( 0.000000 -0.004008  0.000003)
 43:   3281.08   0.001481    7.49  0.000141  ( 0.000000 -0.011869 -0.000000)
 44:   3302.15   0.000149    0.75  0.000014  (-0.000000 -0.000000  0.003752)

--------------------------
THERMOCHEMISTRY AT 298.15K
--------------------------

Temperature         ... 298.15 K
Pressure            ... 1.00 atm
Total Mass          ... 96.13 AMU

Throughout the following assumptions are being made:
  (1) The electronic state is orbitally nondegenerate
  (2) There are no thermally accessible electronically excited states
  (3) Hindered rotations indicated by low frequency modes are not
      treated as such but are treated as vibrations and this may
      cause some error
  (4) All equations used are the standard statistical mechanics
      equations for an ideal gas
  (5) All vibrations are strictly harmonic

freq.      59.78  E(vib)   ...       0.51
freq.      61.90  E(vib)   ...       0.51
freq.     188.91  E(vib)   ...       0.36
freq.     275.03  E(vib)   ...       0.28
freq.     289.91  E(vib)   ...       0.27
freq.     442.39  E(vib)   ...       0.17
freq.     630.77  E(vib)   ...       0.09
freq.     638.13  E(vib)   ...       0.09
freq.     641.67  E(vib)   ...       0.09
freq.     746.39  E(vib)   ...       0.06
freq.     763.75  E(vib)   ...       0.06
freq.     879.41  E(vib)   ...       0.04
freq.    1023.47  E(vib)   ...       0.02
freq.    1036.49  E(vib)   ...       0.02
freq.    1077.81  E(vib)   ...       0.02
freq.    1089.91  E(vib)   ...       0.02
freq.    1098.03  E(vib)   ...       0.02
freq.    1144.15  E(vib)   ...       0.01
freq.    1144.27  E(vib)   ...       0.01
freq.    1237.82  E(vib)   ...       0.01
freq.    1381.24  E(vib)   ...       0.01
freq.    1409.06  E(vib)   ...       0.00
freq.    1421.16  E(vib)   ...       0.00
freq.    1422.85  E(vib)   ...       0.00
freq.    1449.55  E(vib)   ...       0.00
freq.    1449.96  E(vib)   ...       0.00
freq.    1450.64  E(vib)   ...       0.00
freq.    1475.85  E(vib)   ...       0.00
freq.    1481.67  E(vib)   ...       0.00
freq.    1512.57  E(vib)   ...       0.00
freq.    1661.04  E(vib)   ...       0.00
freq.    3076.57  E(vib)   ...       0.00
freq.    3077.55  E(vib)   ...       0.00
freq.    3174.95  E(vib)   ...       0.00
freq.    3174.96  E(vib)   ...       0.00
freq.    3215.12  E(vib)   ...       0.00
freq.    3215.27  E(vib)   ...       0.00
freq.    3281.08  E(vib)   ...       0.00
freq.    3302.15  E(vib)   ...       0.00

------------
INNER ENERGY
------------

The inner energy is: U= E(el) + E(ZPE) + E(vib) + E(rot) + E(trans)
    E(el)   - is the total energy from the electronic structure calculation
              = E(kin-el) + E(nuc-el) + E(el-el) + E(nuc-nuc)
    E(ZPE)  - the the zero temperature vibrational energy from the frequency calculation
    E(vib)  - the the finite temperature correction to E(ZPE) due to population
              of excited vibrational states
    E(rot)  - is the rotational thermal energy
    E(trans)- is the translational thermal energy

Summary of contributions to the inner energy U:
Electronic energy                ...   -304.51281373 Eh
Zero point energy                ...      0.12781255 Eh      80.20 kcal/mol
Thermal vibrational correction   ...      0.00428946 Eh       2.69 kcal/mol
Thermal rotational correction    ...      0.00141627 Eh       0.89 kcal/mol
Thermal translational correction ...      0.00141627 Eh       0.89 kcal/mol
-----------------------------------------------------------------------
Total thermal energy                   -304.37787918 Eh

Summary of corrections to the electronic energy:
(perhaps to be used in another calculation)
Total thermal correction                  0.00712200 Eh       4.47 kcal/mol
Non-thermal (ZPE) correction              0.12781255 Eh      80.20 kcal/mol
-----------------------------------------------------------------------
Total correction                          0.13493455 Eh      84.67 kcal/mol

--------
ENTHALPY
--------

The enthalpy is H = U + kB*T
                kB is Boltzmann's constant
Total free energy                 ...   -304.37787918 Eh
Thermal Enthalpy correction       ...      0.00094421 Eh       0.59 kcal/mol
-----------------------------------------------------------------------
Total Enthalpy                    ...   -304.37693498 Eh

Note: Rotational entropy computed according to Herzberg
Infrared and Raman Spectra, Chapter V,1, Van Nostrand Reinhold, 1945
Point Group:  C2v, Symmetry Number:   2
Rotational constants in cm-1:     0.236516     0.069833     0.055051

Vibrational entropy computed according to the QRRHO of S. Grimme
Chem.Eur.J. 2012 18 9955

-------
ENTROPY
-------

The entropy contributions are T*S = T*(S(el)+S(vib)+S(rot)+S(trans))
     S(el)   - electronic entropy
     S(vib)  - vibrational entropy
     S(rot)  - rotational entropy
     S(trans)- translational entropy
The entropies will be listed as multiplied by the temperature to get
units of energy

Electronic entropy                ...      0.00000000 Eh      0.00 kcal/mol
Vibrational entropy               ...      0.00738452 Eh      4.63 kcal/mol
Rotational entropy                ...      0.01216235 Eh      7.63 kcal/mol
Translational entropy             ...      0.01881539 Eh     11.81 kcal/mol
-----------------------------------------------------------------------
Final entropy term                ...      0.03836226 Eh     24.07 kcal/mol

In case the symmetry of your molecule has not been determined correctly
or in case you have a reason to use a different symmetry number we print
out the resulting rotational entropy values for sn=1,12 :
 --------------------------------------------------------
|  sn= 1 | S(rot)=       0.01281681 Eh      8.04 kcal/mol|
|  sn= 2 | S(rot)=       0.01216235 Eh      7.63 kcal/mol|
|  sn= 3 | S(rot)=       0.01177952 Eh      7.39 kcal/mol|
|  sn= 4 | S(rot)=       0.01150790 Eh      7.22 kcal/mol|
|  sn= 5 | S(rot)=       0.01129721 Eh      7.09 kcal/mol|
|  sn= 6 | S(rot)=       0.01112506 Eh      6.98 kcal/mol|
|  sn= 7 | S(rot)=       0.01097952 Eh      6.89 kcal/mol|
|  sn= 8 | S(rot)=       0.01085344 Eh      6.81 kcal/mol|
|  sn= 9 | S(rot)=       0.01074223 Eh      6.74 kcal/mol|
|  sn=10 | S(rot)=       0.01064275 Eh      6.68 kcal/mol|
|  sn=11 | S(rot)=       0.01055276 Eh      6.62 kcal/mol|
|  sn=12 | S(rot)=       0.01047061 Eh      6.57 kcal/mol|
 --------------------------------------------------------

-------------------
GIBBS FREE ENERGY
-------------------

The Gibbs free energy is G = H - T*S

Total enthalpy                    ...   -304.37693498 Eh
Total entropy correction          ...     -0.03836226 Eh    -24.07 kcal/mol
-----------------------------------------------------------------------
Final Gibbs free energy         ...   -304.41529723 Eh

For completeness - the Gibbs free energy minus the electronic energy
G-E(el)                           ...      0.09751650 Eh     61.19 kcal/mol

                             ****ORCA TERMINATED NORMALLY****
TOTAL RUN TIME: 0 days 0 hours 4 minutes 16 seconds 936 msec
