                         Program Version 5.0.3 -  RELEASE  -
|  1> # ORCAForces - ../2023_02/pKa_prediction/Yates_carbene_xyzs/Our_level/Uncharged/Water/2/iPrH_Water.inp
|  2> # Basic Mode
|  3> #
|  4> ! Opt FREQ wB97X D4 Def2-SVP SlowConv TightSCF DEFGRID2 Def2/J RIJCOSX CPCM(Water)
|  5>
|  6> %maxcore 4500
|  7>
|  8> %PAL NPROCS 4 END
|  9>
| 10> %geom
| 11> Maxiter 150
| 12> END
| 13>
| 14> * xyzfile 0 1 iPrH.xyz
| 15>
| 16>                          ****END OF INPUT****
 Total Charge           Charge          ....    0
 Multiplicity           Mult            ....    1
 Number of Electrons    NEL             ....   84
Dispersion correction           -0.004085982
FINAL SINGLE POINT ENERGY      -461.631567920111
Dispersion correction            ... Starting D4
Dispersion correction           -0.004096689
FINAL SINGLE POINT ENERGY      -461.632850739201
Dispersion correction            ... Starting D4
Dispersion correction           -0.004098707
FINAL SINGLE POINT ENERGY      -461.632908974569
Dispersion correction            ... Starting D4
Dispersion correction           -0.004099543
FINAL SINGLE POINT ENERGY      -461.632926440567
Dispersion correction            ... Starting D4
                    ***********************HURRAY********************

CARTESIAN COORDINATES (ANGSTROEM)
---------------------------------
  C      0.000000    2.456466    0.553232
  C     -0.000000   -2.456466    0.553232
  N      0.000001    1.063252    0.099616
  N      0.000001   -1.063252    0.099616
  C      0.000002    0.678075   -1.231203
  C      0.000001   -0.678075   -1.231203
  C      0.000004    0.000000    0.946651
  C      1.268001    3.176646    0.107564
  C     -1.268002    3.176644    0.107567
  C     -1.268002   -3.176644    0.107564
  C      1.268001   -3.176646    0.107567
  H      0.000001    1.385232   -2.059596
  H      0.000000   -1.385232   -2.059596
  H      0.000002    2.381327    1.651062
  H     -0.000001   -2.381327    1.651062
  H      1.312351    3.262086   -0.990520
  H     -1.312355    3.262083   -0.990518
  H     -1.312353   -3.262083   -0.990520
  H      1.312354   -3.262084   -0.990518
  H      1.292425    4.193752    0.526650
  H     -1.292427    4.193750    0.526652
  H     -1.292426   -4.193751    0.526649
  H      1.292423   -4.193753    0.526651
  H      2.164460    2.638276    0.450971
  H     -2.164460    2.638273    0.450976
  H     -2.164460   -2.638274    0.450972
  H      2.164459   -2.638277    0.450977

 Multiplicity           Mult            ....    1
 Number of Electrons    NEL             ....   84
 Basis Dimension        Dim             ....  234

ORBITAL ENERGIES
----------------

  NO   OCC          E(Eh)            E(eV)
   0   2.0000     -14.446291      -393.1036
   1   2.0000     -14.446291      -393.1036
   2   2.0000     -10.308337      -280.5041
   3   2.0000     -10.308303      -280.5032
   4   2.0000     -10.294503      -280.1277
   5   2.0000     -10.293925      -280.1119
   6   2.0000     -10.276388      -279.6347
   7   2.0000     -10.262652      -279.2610
   8   2.0000     -10.262648      -279.2608
   9   2.0000     -10.262646      -279.2608
  10   2.0000     -10.262641      -279.2607
  11   2.0000      -1.147197       -31.2168
  12   2.0000      -1.040557       -28.3150
  13   2.0000      -0.934514       -25.4294
  14   2.0000      -0.882358       -24.0102
  15   2.0000      -0.865037       -23.5389
  16   2.0000      -0.808028       -21.9875
  17   2.0000      -0.807633       -21.9768
  18   2.0000      -0.759262       -20.6606
  19   2.0000      -0.745828       -20.2950
  20   2.0000      -0.674328       -18.3494
  21   2.0000      -0.661860       -18.0101
  22   2.0000      -0.622112       -16.9285
  23   2.0000      -0.585708       -15.9379
  24   2.0000      -0.576625       -15.6908
  25   2.0000      -0.558048       -15.1853
  26   2.0000      -0.556938       -15.1551
  27   2.0000      -0.535035       -14.5591
  28   2.0000      -0.533227       -14.5098
  29   2.0000      -0.526135       -14.3169
  30   2.0000      -0.500172       -13.6104
  31   2.0000      -0.491535       -13.3754
  32   2.0000      -0.484399       -13.1812
  33   2.0000      -0.481893       -13.1130
  34   2.0000      -0.465462       -12.6659
  35   2.0000      -0.456089       -12.4108
  36   2.0000      -0.446010       -12.1365
  37   2.0000      -0.440949       -11.9988
  38   2.0000      -0.433090       -11.7850
  39   2.0000      -0.370278       -10.0758
  40   2.0000      -0.324853        -8.8397
  41   2.0000      -0.324664        -8.8346
  42   0.0000       0.123444         3.3591
  43   0.0000       0.130331         3.5465
  44   0.0000       0.150860         4.1051
  45   0.0000       0.151733         4.1289
  46   0.0000       0.179807         4.8928

MULLIKEN ATOMIC CHARGES
-----------------------
   0 C :   -0.002000
   1 C :   -0.001999
   2 N :   -0.213579
   3 N :   -0.213579
   4 C :    0.014872
   5 C :    0.014871
   6 C :   -0.214991
   7 C :   -0.014154
   8 C :   -0.014154
   9 C :   -0.014155
  10 C :   -0.014154
  11 H :    0.065910
  12 H :    0.065910
  13 H :    0.028150
  14 H :    0.028150
  15 H :    0.035010
  16 H :    0.035010
  17 H :    0.035010
  18 H :    0.035010
  19 H :    0.046216
  20 H :    0.046216
  21 H :    0.046216
  22 H :    0.046216
  23 H :    0.039999
  24 H :    0.039999
  25 H :    0.039999
  26 H :    0.039999
Sum of atomic charges:   -0.0000000

LOEWDIN ATOMIC CHARGES
----------------------
   0 C :    0.027652
   1 C :    0.027652
   2 N :    0.032114
   3 N :    0.032114
   4 C :   -0.035051
   5 C :   -0.035051
   6 C :   -0.321897
   7 C :   -0.061727
   8 C :   -0.061727
   9 C :   -0.061727
  10 C :   -0.061727
  11 H :    0.039962
  12 H :    0.039963
  13 H :    0.028264
  14 H :    0.028264
  15 H :    0.028778
  16 H :    0.028778
  17 H :    0.028778
  18 H :    0.028778
  19 H :    0.036264
  20 H :    0.036264
  21 H :    0.036264
  22 H :    0.036264
  23 H :    0.030689
  24 H :    0.030689
  25 H :    0.030689
  26 H :    0.030688

  Mayer bond orders larger than 0.100000
B(  0-C ,  2-N ) :   0.9095 B(  0-C ,  7-C ) :   1.0713 B(  0-C ,  8-C ) :   1.0713
B(  0-C , 13-H ) :   0.9326 B(  1-C ,  3-N ) :   0.9095 B(  1-C ,  9-C ) :   1.0713
B(  1-C , 10-C ) :   1.0713 B(  1-C , 14-H ) :   0.9326 B(  2-N ,  4-C ) :   1.1244
B(  2-N ,  6-C ) :   1.2417 B(  3-N ,  5-C ) :   1.1244 B(  3-N ,  6-C ) :   1.2417
B(  4-C ,  5-C ) :   1.6287 B(  4-C , 11-H ) :   0.9887 B(  5-C , 12-H ) :   0.9887
B(  7-C , 15-H ) :   0.9644 B(  7-C , 19-H ) :   0.9718 B(  7-C , 23-H ) :   0.9684
B(  8-C , 16-H ) :   0.9644 B(  8-C , 20-H ) :   0.9718 B(  8-C , 24-H ) :   0.9684
B(  9-C , 17-H ) :   0.9644 B(  9-C , 21-H ) :   0.9718 B(  9-C , 25-H ) :   0.9684
B( 10-C , 18-H ) :   0.9644 B( 10-C , 22-H ) :   0.9718 B( 10-C , 26-H ) :   0.9684

Dispersion correction           -0.004099428
FINAL SINGLE POINT ENERGY      -461.632928002734

DIPOLE MOMENT
-------------
                                X             Y             Z
Electronic contribution:      0.00001       0.00000      -0.36704
Nuclear contribution   :     -0.00002      -0.00000      -1.02766
                        -----------------------------------------
Total Dipole Moment    :     -0.00000       0.00000      -1.39470
                        -----------------------------------------
Magnitude (a.u.)       :      1.39470
Magnitude (Debye)      :      3.54505

Dispersion correction in the Hessian             ... Starting D4

VIBRATIONAL FREQUENCIES
-----------------------

Scaling factor for frequencies =  1.000000000  (already applied!)

   0:         0.00 cm**-1
   1:         0.00 cm**-1
   2:         0.00 cm**-1
   3:         0.00 cm**-1
   4:         0.00 cm**-1
   5:         0.00 cm**-1
   6:        23.14 cm**-1
   7:        26.73 cm**-1
   8:       115.79 cm**-1
   9:       149.06 cm**-1
  10:       159.44 cm**-1
  11:       232.25 cm**-1
  12:       232.33 cm**-1
  13:       251.47 cm**-1
  14:       262.77 cm**-1
  15:       270.33 cm**-1
  16:       299.57 cm**-1
  17:       354.60 cm**-1
  18:       403.95 cm**-1
  19:       444.96 cm**-1
  20:       458.63 cm**-1
  21:       573.97 cm**-1
  22:       635.59 cm**-1
  23:       675.06 cm**-1
  24:       682.78 cm**-1
  25:       690.13 cm**-1
  26:       749.54 cm**-1
  27:       883.67 cm**-1
  28:       907.02 cm**-1
  29:       911.71 cm**-1
  30:       933.18 cm**-1
  31:       933.22 cm**-1
  32:       955.73 cm**-1
  33:       955.84 cm**-1
  34:      1019.75 cm**-1
  35:      1027.16 cm**-1
  36:      1071.60 cm**-1
  37:      1090.47 cm**-1
  38:      1103.40 cm**-1
  39:      1168.39 cm**-1
  40:      1168.43 cm**-1
  41:      1187.10 cm**-1
  42:      1193.34 cm**-1
  43:      1247.55 cm**-1
  44:      1319.89 cm**-1
  45:      1325.06 cm**-1
  46:      1347.75 cm**-1
  47:      1348.07 cm**-1
  48:      1395.17 cm**-1
  49:      1398.18 cm**-1
  50:      1398.90 cm**-1
  51:      1399.19 cm**-1
  52:      1409.06 cm**-1
  53:      1420.63 cm**-1
  54:      1442.65 cm**-1
  55:      1444.85 cm**-1
  56:      1444.85 cm**-1
  57:      1455.56 cm**-1
  58:      1455.58 cm**-1
  59:      1457.50 cm**-1
  60:      1460.98 cm**-1
  61:      1468.90 cm**-1
  62:      1479.21 cm**-1
  63:      1487.31 cm**-1
  64:      1654.13 cm**-1
  65:      3062.57 cm**-1
  66:      3062.57 cm**-1
  67:      3064.94 cm**-1
  68:      3065.07 cm**-1
  69:      3126.72 cm**-1
  70:      3126.93 cm**-1
  71:      3161.86 cm**-1
  72:      3161.88 cm**-1
  73:      3165.70 cm**-1
  74:      3165.79 cm**-1
  75:      3175.36 cm**-1
  76:      3175.36 cm**-1
  77:      3177.12 cm**-1
  78:      3177.17 cm**-1
  79:      3282.19 cm**-1
  80:      3302.64 cm**-1

IR SPECTRUM
-----------

 Mode   freq       eps      Int      T**2         TX        TY        TZ
       cm**-1   L/(mol*cm) km/mol    a.u.
----------------------------------------------------------------------------
  6:     23.14   0.000019    0.10  0.000257  ( 0.016043  0.000000 -0.000000)
  7:     26.73   0.000000    0.00  0.000000  (-0.000001 -0.000000  0.000000)
  8:    115.79   0.003718   18.79  0.010020  (-0.100101  0.000000  0.000000)
  9:    149.06   0.000000    0.00  0.000000  (-0.000001 -0.000000 -0.000000)
 10:    159.44   0.000484    2.44  0.000947  (-0.000000  0.000000 -0.030767)
 11:    232.25   0.000000    0.00  0.000000  (-0.000023 -0.000000 -0.000000)
 12:    232.33   0.000088    0.44  0.000118  (-0.010855  0.000000  0.000000)
 13:    251.47   0.000099    0.50  0.000123  (-0.000000 -0.011087  0.000000)
 14:    262.77   0.000005    0.03  0.000006  ( 0.000000  0.000000  0.002464)
 15:    270.33   0.000001    0.01  0.000001  (-0.000000  0.000000 -0.001134)
 16:    299.57   0.000968    4.89  0.001008  (-0.000000 -0.031749  0.000000)
 17:    354.60   0.000780    3.94  0.000687  (-0.000000 -0.026205 -0.000000)
 18:    403.95   0.004670   23.60  0.003607  ( 0.060062 -0.000000 -0.000000)
 19:    444.96   0.000000    0.00  0.000000  (-0.000000  0.000000  0.000000)
 20:    458.63   0.000036    0.18  0.000025  ( 0.000000 -0.000000 -0.004972)
 21:    573.97   0.003613   18.26  0.001964  (-0.000000  0.044319 -0.000000)
 22:    635.59   0.000048    0.24  0.000024  (-0.000000  0.000000 -0.004862)
 23:    675.06   0.002198   11.11  0.001016  (-0.031879  0.000000 -0.000000)
 24:    682.78   0.000000    0.00  0.000000  ( 0.000000  0.000000 -0.000000)
 25:    690.13   0.002205   11.14  0.000997  ( 0.000000  0.031577  0.000000)
 26:    749.54   0.013717   69.32  0.005711  (-0.075570 -0.000000  0.000000)
 27:    883.67   0.000000    0.00  0.000000  (-0.000000 -0.000000  0.000000)
 28:    907.02   0.002113   10.68  0.000727  (-0.000000 -0.026965 -0.000000)
 29:    911.71   0.000676    3.42  0.000231  (-0.000000 -0.000000  0.015214)
 30:    933.18   0.000000    0.00  0.000000  (-0.000011  0.000000  0.000000)
 31:    933.22   0.000638    3.22  0.000213  (-0.014607  0.000000 -0.000000)
 32:    955.73   0.000218    1.10  0.000071  (-0.008441 -0.000000  0.000000)
 33:    955.84   0.000000    0.00  0.000000  (-0.000001 -0.000000 -0.000000)
 34:   1019.75   0.002826   14.28  0.000865  (-0.000000  0.029410  0.000000)
 35:   1027.16   0.000112    0.57  0.000034  ( 0.000000  0.000000 -0.005828)
 36:   1071.60   0.000358    1.81  0.000104  (-0.000000  0.010217 -0.000000)
 37:   1090.47   0.001563    7.90  0.000447  (-0.000000 -0.000000  0.021147)
 38:   1103.40   0.004885   24.68  0.001381  (-0.000000 -0.000000  0.037168)
 39:   1168.39   0.000000    0.00  0.000000  (-0.000023 -0.000000  0.000000)
 40:   1168.43   0.004121   20.82  0.001101  ( 0.033175  0.000000 -0.000000)
 41:   1187.10   0.000133    0.67  0.000035  (-0.000000  0.000000 -0.005911)
 42:   1193.34   0.000027    0.14  0.000007  ( 0.000000 -0.002647 -0.000000)
 43:   1247.55   0.034875  176.24  0.008724  ( 0.000000 -0.093400  0.000000)
 44:   1319.89   0.005686   28.73  0.001344  ( 0.000000  0.036665  0.000000)
 45:   1325.06   0.000121    0.61  0.000028  (-0.000000  0.000000 -0.005327)
 46:   1347.75   0.000000    0.00  0.000000  ( 0.000001 -0.000000  0.000000)
 47:   1348.07   0.000171    0.86  0.000040  ( 0.006291 -0.000000  0.000000)
 48:   1395.17   0.000216    1.09  0.000048  ( 0.000000  0.006949  0.000000)
 49:   1398.18   0.000157    0.79  0.000035  (-0.000005  0.000000  0.005921)
 50:   1398.90   0.000000    0.00  0.000000  ( 0.000005  0.000000  0.000000)
 51:   1399.19   0.010319   52.15  0.002301  (-0.047973  0.000000 -0.000001)
 52:   1409.06   0.003233   16.34  0.000716  ( 0.000000  0.000001 -0.026757)
 53:   1420.63   0.014499   73.27  0.003185  (-0.000000  0.056436  0.000000)
 54:   1442.65   0.005176   26.16  0.001120  ( 0.000000 -0.000000  0.033462)
 55:   1444.85   0.000000    0.00  0.000000  (-0.000000  0.000000  0.000000)
 56:   1444.85   0.000000    0.00  0.000000  ( 0.000057  0.000000  0.000000)
 57:   1455.56   0.000289    1.46  0.000062  (-0.007877  0.000000 -0.000000)
 58:   1455.58   0.000000    0.00  0.000000  ( 0.000012  0.000000 -0.000000)
 59:   1457.50   0.000728    3.68  0.000156  (-0.000000 -0.012481 -0.000000)
 60:   1460.98   0.004022   20.33  0.000859  ( 0.000000 -0.000000 -0.029310)
 61:   1468.90   0.002330   11.78  0.000495  ( 0.000000  0.022249 -0.000000)
 62:   1479.21   0.001061    5.36  0.000224  (-0.000000 -0.000001  0.014958)
 63:   1487.31   0.024248  122.54  0.005088  ( 0.000000 -0.071328 -0.000000)
 64:   1654.13   0.000021    0.10  0.000004  ( 0.000000 -0.000000  0.001978)
 65:   3062.57   0.000001    0.00  0.000000  ( 0.000275 -0.000000 -0.000000)
 66:   3062.57   0.009754   49.29  0.000994  (-0.031525  0.000001  0.000000)
 67:   3064.94   0.003206   16.20  0.000326  (-0.000001 -0.018068 -0.000008)
 68:   3065.07   0.002000   10.11  0.000204  ( 0.000000 -0.000010  0.014269)
 69:   3126.72   0.002162   10.93  0.000216  ( 0.000000 -0.000001 -0.014691)
 70:   3126.93   0.000304    1.54  0.000030  (-0.000000 -0.005511  0.000003)
 71:   3161.86   0.002979   15.05  0.000294  ( 0.017146  0.000000  0.000000)
 72:   3161.88   0.000000    0.00  0.000000  ( 0.000097  0.000000 -0.000001)
 73:   3165.70   0.000069    0.35  0.000007  (-0.000000 -0.002606  0.000085)
 74:   3165.79   0.018903   95.53  0.001863  ( 0.000000 -0.000005 -0.043166)
 75:   3175.36   0.004400   22.24  0.000432  (-0.020795 -0.000003  0.000000)
 76:   3175.36   0.000000    0.00  0.000000  ( 0.000077  0.000001 -0.000001)
 77:   3177.12   0.013702   69.24  0.001346  ( 0.000002 -0.036685 -0.000002)
 78:   3177.17   0.000902    4.56  0.000089  (-0.000000  0.000010 -0.009410)
 79:   3282.19   0.001414    7.14  0.000134  (-0.000000  0.011594 -0.000000)
 80:   3302.64   0.000251    1.27  0.000024  (-0.000000 -0.000000 -0.004867)

--------------------------
THERMOCHEMISTRY AT 298.15K
--------------------------

Temperature         ... 298.15 K
Pressure            ... 1.00 atm
Total Mass          ... 152.24 AMU

Throughout the following assumptions are being made:
  (1) The electronic state is orbitally nondegenerate
  (2) There are no thermally accessible electronically excited states
  (3) Hindered rotations indicated by low frequency modes are not
      treated as such but are treated as vibrations and this may
      cause some error
  (4) All equations used are the standard statistical mechanics
      equations for an ideal gas
  (5) All vibrations are strictly harmonic

freq.      23.14  E(vib)   ...       0.56
freq.      26.73  E(vib)   ...       0.56
freq.     115.79  E(vib)   ...       0.44
freq.     149.06  E(vib)   ...       0.40
freq.     159.44  E(vib)   ...       0.39
freq.     232.25  E(vib)   ...       0.32
freq.     232.33  E(vib)   ...       0.32
freq.     251.47  E(vib)   ...       0.30
freq.     262.77  E(vib)   ...       0.29
freq.     270.33  E(vib)   ...       0.29
freq.     299.57  E(vib)   ...       0.26
freq.     354.60  E(vib)   ...       0.22
freq.     403.95  E(vib)   ...       0.19
freq.     444.96  E(vib)   ...       0.17
freq.     458.63  E(vib)   ...       0.16
freq.     573.97  E(vib)   ...       0.11
freq.     635.59  E(vib)   ...       0.09
freq.     675.06  E(vib)   ...       0.08
freq.     682.78  E(vib)   ...       0.08
freq.     690.13  E(vib)   ...       0.07
freq.     749.54  E(vib)   ...       0.06
freq.     883.67  E(vib)   ...       0.04
freq.     907.02  E(vib)   ...       0.03
freq.     911.71  E(vib)   ...       0.03
freq.     933.18  E(vib)   ...       0.03
freq.     933.22  E(vib)   ...       0.03
freq.     955.73  E(vib)   ...       0.03
freq.     955.84  E(vib)   ...       0.03
freq.    1019.75  E(vib)   ...       0.02
freq.    1027.16  E(vib)   ...       0.02
freq.    1071.60  E(vib)   ...       0.02
freq.    1090.47  E(vib)   ...       0.02
freq.    1103.40  E(vib)   ...       0.02
freq.    1168.39  E(vib)   ...       0.01
freq.    1168.43  E(vib)   ...       0.01
freq.    1187.10  E(vib)   ...       0.01
freq.    1193.34  E(vib)   ...       0.01
freq.    1247.55  E(vib)   ...       0.01
freq.    1319.89  E(vib)   ...       0.01
freq.    1325.06  E(vib)   ...       0.01
freq.    1347.75  E(vib)   ...       0.01
freq.    1348.07  E(vib)   ...       0.01
freq.    1395.17  E(vib)   ...       0.00
freq.    1398.18  E(vib)   ...       0.00
freq.    1398.90  E(vib)   ...       0.00
freq.    1399.19  E(vib)   ...       0.00
freq.    1409.06  E(vib)   ...       0.00
freq.    1420.63  E(vib)   ...       0.00
freq.    1442.65  E(vib)   ...       0.00
freq.    1444.85  E(vib)   ...       0.00
freq.    1444.85  E(vib)   ...       0.00
freq.    1455.56  E(vib)   ...       0.00
freq.    1455.58  E(vib)   ...       0.00
freq.    1457.50  E(vib)   ...       0.00
freq.    1460.98  E(vib)   ...       0.00
freq.    1468.90  E(vib)   ...       0.00
freq.    1479.21  E(vib)   ...       0.00
freq.    1487.31  E(vib)   ...       0.00
freq.    1654.13  E(vib)   ...       0.00
freq.    3062.57  E(vib)   ...       0.00
freq.    3062.57  E(vib)   ...       0.00
freq.    3064.94  E(vib)   ...       0.00
freq.    3065.07  E(vib)   ...       0.00
freq.    3126.72  E(vib)   ...       0.00
freq.    3126.93  E(vib)   ...       0.00
freq.    3161.86  E(vib)   ...       0.00
freq.    3161.88  E(vib)   ...       0.00
freq.    3165.70  E(vib)   ...       0.00
freq.    3165.79  E(vib)   ...       0.00
freq.    3175.36  E(vib)   ...       0.00
freq.    3175.36  E(vib)   ...       0.00
freq.    3177.12  E(vib)   ...       0.00
freq.    3177.17  E(vib)   ...       0.00
freq.    3282.19  E(vib)   ...       0.00
freq.    3302.64  E(vib)   ...       0.00

------------
INNER ENERGY
------------

The inner energy is: U= E(el) + E(ZPE) + E(vib) + E(rot) + E(trans)
    E(el)   - is the total energy from the electronic structure calculation
              = E(kin-el) + E(nuc-el) + E(el-el) + E(nuc-nuc)
    E(ZPE)  - the the zero temperature vibrational energy from the frequency calculation
    E(vib)  - the the finite temperature correction to E(ZPE) due to population
              of excited vibrational states
    E(rot)  - is the rotational thermal energy
    E(trans)- is the translational thermal energy

Summary of contributions to the inner energy U:
Electronic energy                ...   -461.63292800 Eh
Zero point energy                ...      0.24129653 Eh     151.42 kcal/mol
Thermal vibrational correction   ...      0.00928734 Eh       5.83 kcal/mol
Thermal rotational correction    ...      0.00141627 Eh       0.89 kcal/mol
Thermal translational correction ...      0.00141627 Eh       0.89 kcal/mol
-----------------------------------------------------------------------
Total thermal energy                   -461.37951158 Eh

Summary of corrections to the electronic energy:
(perhaps to be used in another calculation)
Total thermal correction                  0.01211989 Eh       7.61 kcal/mol
Non-thermal (ZPE) correction              0.24129653 Eh     151.42 kcal/mol
-----------------------------------------------------------------------
Total correction                          0.25341642 Eh     159.02 kcal/mol

--------
ENTHALPY
--------

The enthalpy is H = U + kB*T
                kB is Boltzmann's constant
Total free energy                 ...   -461.37951158 Eh
Thermal Enthalpy correction       ...      0.00094421 Eh       0.59 kcal/mol
-----------------------------------------------------------------------
Total Enthalpy                    ...   -461.37856737 Eh

Note: Rotational entropy computed according to Herzberg
Infrared and Raman Spectra, Chapter V,1, Van Nostrand Reinhold, 1945
Point Group:  C2v, Symmetry Number:   2
Rotational constants in cm-1:     0.091078     0.018628     0.017944

Vibrational entropy computed according to the QRRHO of S. Grimme
Chem.Eur.J. 2012 18 9955

-------
ENTROPY
-------

The entropy contributions are T*S = T*(S(el)+S(vib)+S(rot)+S(trans))
     S(el)   - electronic entropy
     S(vib)  - vibrational entropy
     S(rot)  - rotational entropy
     S(trans)- translational entropy
The entropies will be listed as multiplied by the temperature to get
units of energy

Electronic entropy                ...      0.00000000 Eh      0.00 kcal/mol
Vibrational entropy               ...      0.01635871 Eh     10.27 kcal/mol
Rotational entropy                ...      0.01376592 Eh      8.64 kcal/mol
Translational entropy             ...      0.01946649 Eh     12.22 kcal/mol

                             ****ORCA TERMINATED NORMALLY****
TOTAL RUN TIME: 0 days 0 hours 13 minutes 57 seconds 711 msec
