                         Program Version 5.0.3 -  RELEASE  -
|  1> ! Opt FREQ wB97X D4 Def2-SVP SlowConv TightSCF DEFGRID2 Def2/J RIJCOSX CPCM(Water)
|  2> %MAXCORE 4000
|  3> %scf MaxIter 20000 end
|  4> %geom
|  5> MaxIter 500
|  6> end
|  7> %PAL NPROCS 8 END
|  8>
|  9> * xyz 0 1
| 10> C 1.47212 0.17517 0.49675
| 11> C 0.78999 -0.89641 1.05714
| 12> N 0.67634 0.7615 -0.41927
| 13> N -0.48496 -0.81993 0.43577
| 14> C -0.59168 0.22766 -0.45904
| 15> H 2.42304 0.63569 0.78685
| 16> H 1.11342 -1.68018 1.83399
| 17> C 1.24191 1.94482 -1.05874
| 18> C -1.61627 -1.74173 0.78614
| 19> C 0.34836 2.47184 -2.11209
| 20> C -1.54893 -2.88855 -0.2867
| 21> C -1.45763 -2.20002 2.23941
| 22> C 2.59589 1.41787 -1.65123
| 23> H 0.12754 1.80678 -2.99095
| 24> H -0.5277 -3.16005 -0.4575
| 25> H -0.59783 -2.91591 2.37076
| 26> H 2.3202 0.60438 -2.32073
| 27> H -0.69781 2.67722 -1.67984
| 28> H -2.00152 -2.55557 -1.22548
| 29> H -1.33103 -1.40409 3.01353
| 30> H 3.45233 1.06741 -1.00704
| 31> H 0.54848 3.47854 -2.58499
| 32> H -2.03812 -3.83058 0.03939
| 33> H -2.38563 -2.76873 2.43839
| 34> H 3.06018 2.1999 -2.27802
| 35> C 1.41794 3.04458 -0.00183
| 36> C -2.9723 -1.0631 0.66551
| 37> H 1.88648 3.95172 -0.478
| 38> H -3.80518 -1.86329 0.66758
| 39> H 0.39004 3.23465 0.37294
| 40> H -3.13603 -0.55484 -0.34028
| 41> H -3.15792 -0.24114 1.37027
| 42> H 2.0833 2.7282 0.81885
| 43> **                         ****END OF INPUT****
 Total Charge           Charge          ....    0
 Multiplicity           Mult            ....    1
 Number of Electrons    NEL             ....  100
Dispersion correction           -0.005707050
FINAL SINGLE POINT ENERGY      -540.140857260623
Dispersion correction            ... Starting D4
Dispersion correction           -0.005712907
FINAL SINGLE POINT ENERGY      -540.169097611635
Dispersion correction            ... Starting D4
Dispersion correction           -0.005724316
FINAL SINGLE POINT ENERGY      -540.180560791013
Dispersion correction            ... Starting D4
FINAL SINGLE POINT ENERGY      -540.184505035961
FINAL SINGLE POINT ENERGY      -540.185841593545
FINAL SINGLE POINT ENERGY      -540.186467767830
FINAL SINGLE POINT ENERGY      -540.186798856326
FINAL SINGLE POINT ENERGY      -540.186889598430
FINAL SINGLE POINT ENERGY      -540.186936387835
FINAL SINGLE POINT ENERGY      -540.186955708320
FINAL SINGLE POINT ENERGY      -540.187039130867
FINAL SINGLE POINT ENERGY      -540.187169490520
FINAL SINGLE POINT ENERGY      -540.187275187203
FINAL SINGLE POINT ENERGY      -540.187220040793
FINAL SINGLE POINT ENERGY      -540.187391277756
FINAL SINGLE POINT ENERGY      -540.187405149594
FINAL SINGLE POINT ENERGY      -540.187409113118
Dispersion correction           -0.005717728
FINAL SINGLE POINT ENERGY      -540.187406696112
Dispersion correction            ... Starting D4
Dispersion correction           -0.005717892
FINAL SINGLE POINT ENERGY      -540.187404553568
Dispersion correction            ... Starting D4
                    ***********************HURRAY********************

CARTESIAN COORDINATES (ANGSTROEM)
---------------------------------
  C      1.579734   -0.070019    0.405687
  C      0.817554   -1.086765    0.870978
  N      0.731124    0.751120   -0.323675
  N     -0.471048   -0.849375    0.413450
  C     -0.546956    0.286558   -0.330585
  H      2.641884    0.127496    0.538973
  H      1.091088   -1.944234    1.483192
  C      1.204689    1.993548   -0.980575
  C     -1.601417   -1.758356    0.721089
  C      0.062591    2.652647   -1.748645
  C     -1.303282   -3.133040    0.112904
  C     -1.744730   -1.864182    2.243333
  C      2.330322    1.634721   -1.956252
  H     -0.326727    1.988037   -2.533254
  H     -0.382153   -3.568621    0.530113
  H     -0.844692   -2.295397    2.707798
  H      1.969749    0.918871   -2.711611
  H     -0.770246    2.916001   -1.082165
  H     -1.185935   -3.052559   -0.979200
  H     -1.921927   -0.870205    2.683255
  H      3.193220    1.188437   -1.438789
  H      0.442918    3.571188   -2.220784
  H     -2.131533   -3.826539    0.324117
  H     -2.597092   -2.513021    2.495572
  H      2.680725    2.540414   -2.473999
  C      1.716031    2.952000    0.100670
  C     -2.895259   -1.208577    0.127855
  H      2.069278    3.887784   -0.358698
  H     -3.715203   -1.900998    0.372066
  H      0.910053    3.194888    0.810895
  H     -2.825668   -1.113946   -0.964816
  H     -3.134967   -0.217834    0.539449
  H      2.554895    2.513766    0.663194

 Multiplicity           Mult            ....    1
 Number of Electrons    NEL             ....  100
 Basis Dimension        Dim             ....  282

ORBITAL ENERGIES
----------------

  NO   OCC          E(Eh)            E(eV)
   0   2.0000     -14.443924      -393.0391
   1   2.0000     -14.443898      -393.0385
   2   2.0000     -10.315895      -280.7098
   3   2.0000     -10.315857      -280.7087
   4   2.0000     -10.291495      -280.0458
   5   2.0000     -10.290900      -280.0296
   6   2.0000     -10.271990      -279.5151
   7   2.0000     -10.261222      -279.2220
   8   2.0000     -10.261213      -279.2218
   9   2.0000     -10.261098      -279.2187
  10   2.0000     -10.261087      -279.2184
  11   2.0000     -10.257533      -279.1217
  12   2.0000     -10.257495      -279.1206
  13   2.0000      -1.143194       -31.1079
  14   2.0000      -1.040624       -28.3168
  15   2.0000      -0.950199       -25.8562
  16   2.0000      -0.898940       -24.4614
  17   2.0000      -0.863918       -23.5084
  18   2.0000      -0.809035       -22.0150
  19   2.0000      -0.808580       -22.0026
  20   2.0000      -0.808221       -21.9928
  21   2.0000      -0.802746       -21.8438
  22   2.0000      -0.755454       -20.5569
  23   2.0000      -0.716657       -19.5012
  24   2.0000      -0.656174       -17.8554
  25   2.0000      -0.648412       -17.6442
  26   2.0000      -0.615437       -16.7469
  27   2.0000      -0.580055       -15.7841
  28   2.0000      -0.578655       -15.7460
  29   2.0000      -0.556591       -15.1456
  30   2.0000      -0.555545       -15.1171
  31   2.0000      -0.548917       -14.9368
  32   2.0000      -0.533548       -14.5186
  33   2.0000      -0.528528       -14.3820
  34   2.0000      -0.525312       -14.2945
  35   2.0000      -0.501766       -13.6537
  36   2.0000      -0.488899       -13.3036
  37   2.0000      -0.480925       -13.0866
  38   2.0000      -0.479988       -13.0611
  39   2.0000      -0.473238       -12.8775
  40   2.0000      -0.465252       -12.6601
  41   2.0000      -0.465070       -12.6552
  42   2.0000      -0.461025       -12.5451
  43   2.0000      -0.446224       -12.1424
  44   2.0000      -0.436864       -11.8877
  45   2.0000      -0.433846       -11.8056
  46   2.0000      -0.429273       -11.6811
  47   2.0000      -0.365888        -9.9563
  48   2.0000      -0.323422        -8.8008
  49   2.0000      -0.314223        -8.5504
  50   0.0000       0.124250         3.3810
  51   0.0000       0.130496         3.5510
  52   0.0000       0.141651         3.8545
  53   0.0000       0.149280         4.0621
  54   0.0000       0.181481         4.9383

MULLIKEN ATOMIC CHARGES
-----------------------
   0 C :    0.014800
   1 C :    0.014494
   2 N :   -0.203129
   3 N :   -0.202690
   4 C :   -0.198206
   5 H :    0.063663
   6 H :    0.063490
   7 C :   -0.209974
   8 C :   -0.210853
   9 C :    0.073306
  10 C :    0.036248
  11 C :    0.032576
  12 C :    0.031851
  13 H :    0.021602
  14 H :    0.033031
  15 H :    0.033917
  16 H :    0.035196
  17 H :    0.022292
  18 H :    0.034560
  19 H :    0.035236
  20 H :    0.034093
  21 H :    0.033494
  22 H :    0.038795
  23 H :    0.039110
  24 H :    0.039222
  25 C :    0.036885
  26 C :    0.073821
  27 H :    0.038898
  28 H :    0.033565
  29 H :    0.034264
  30 H :    0.022098
  31 H :    0.021613
  32 H :    0.032733
Sum of atomic charges:    0.0000000

LOEWDIN ATOMIC CHARGES
----------------------
   0 C :   -0.035725
   1 C :   -0.035732
   2 N :    0.031140
   3 N :    0.031272
   4 C :   -0.302987
   5 H :    0.038537
   6 H :    0.038505
   7 C :    0.007288
   8 C :    0.007161
   9 C :   -0.047007
  10 C :   -0.051090
  11 C :   -0.051212
  12 C :   -0.051224
  13 H :    0.024524
  14 H :    0.027341
  15 H :    0.027413
  16 H :    0.029350
  17 H :    0.023838
  18 H :    0.029104
  19 H :    0.029352
  20 H :    0.027426
  21 H :    0.030877
  22 H :    0.033481
  23 H :    0.033756
  24 H :    0.033821
  25 C :   -0.051015
  26 C :   -0.047075
  27 H :    0.033445
  28 H :    0.030817
  29 H :    0.029025
  30 H :    0.023976
  31 H :    0.024334
  32 H :    0.027283

  Mayer bond orders larger than 0.100000
B(  0-C ,  1-C ) :   1.6405 B(  0-C ,  2-N ) :   1.1199 B(  0-C ,  5-H ) :   0.9864
B(  1-C ,  3-N ) :   1.1202 B(  1-C ,  6-H ) :   0.9865 B(  2-N ,  4-C ) :   1.2498
B(  2-N ,  7-C ) :   0.8732 B(  3-N ,  4-C ) :   1.2498 B(  3-N ,  8-C ) :   0.8733
B(  7-C ,  9-C ) :   1.0621 B(  7-C , 12-C ) :   1.0416 B(  7-C , 25-C ) :   1.0414
B(  8-C , 10-C ) :   1.0414 B(  8-C , 11-C ) :   1.0417 B(  8-C , 26-C ) :   1.0625
B(  9-C , 13-H ) :   0.9565 B(  9-C , 17-H ) :   0.9549 B(  9-C , 21-H ) :   0.9652
B( 10-C , 14-H ) :   0.9629 B( 10-C , 18-H ) :   0.9668 B( 10-C , 22-H ) :   0.9712
B( 11-C , 15-H ) :   0.9632 B( 11-C , 19-H ) :   0.9668 B( 11-C , 23-H ) :   0.9709
B( 12-C , 16-H ) :   0.9667 B( 12-C , 20-H ) :   0.9634 B( 12-C , 24-H ) :   0.9709
B( 25-C , 27-H ) :   0.9712 B( 25-C , 29-H ) :   0.9668 B( 25-C , 32-H ) :   0.9629
B( 26-C , 28-H ) :   0.9652 B( 26-C , 30-H ) :   0.9550 B( 26-C , 31-H ) :   0.9560

Dispersion correction           -0.005717929
FINAL SINGLE POINT ENERGY      -540.187404013885

DIPOLE MOMENT
-------------
                                X             Y             Z
Electronic contribution:      2.86577      -1.45111       1.53183
Nuclear contribution   :     -1.80339       0.93040      -0.93359
                        -----------------------------------------
Total Dipole Moment    :      1.06238      -0.52071       0.59824
                        -----------------------------------------
Magnitude (a.u.)       :      1.32578
Magnitude (Debye)      :      3.36986

Dispersion correction in the Hessian             ... Starting D4

VIBRATIONAL FREQUENCIES
-----------------------

Scaling factor for frequencies =  1.000000000  (already applied!)

   0:         0.00 cm**-1
   1:         0.00 cm**-1
   2:         0.00 cm**-1
   3:         0.00 cm**-1
   4:         0.00 cm**-1
   5:         0.00 cm**-1
   6:        30.40 cm**-1
   7:        39.42 cm**-1
   8:       124.90 cm**-1
   9:       155.77 cm**-1
  10:       159.52 cm**-1
  11:       223.73 cm**-1
  12:       237.18 cm**-1
  13:       265.55 cm**-1
  14:       274.10 cm**-1
  15:       278.69 cm**-1
  16:       289.58 cm**-1
  17:       300.11 cm**-1
  18:       309.49 cm**-1
  19:       347.32 cm**-1
  20:       354.58 cm**-1
  21:       366.23 cm**-1
  22:       375.24 cm**-1
  23:       407.33 cm**-1
  24:       453.47 cm**-1
  25:       474.19 cm**-1
  26:       479.48 cm**-1
  27:       533.18 cm**-1
  28:       580.93 cm**-1
  29:       659.66 cm**-1
  30:       671.93 cm**-1
  31:       687.45 cm**-1
  32:       757.00 cm**-1
  33:       845.91 cm**-1
  34:       855.90 cm**-1
  35:       891.62 cm**-1
  36:       940.96 cm**-1
  37:       941.67 cm**-1
  38:       950.36 cm**-1
  39:       952.08 cm**-1
  40:       962.53 cm**-1
  41:       963.03 cm**-1
  42:      1004.30 cm**-1
  43:      1024.17 cm**-1
  44:      1040.02 cm**-1
  45:      1041.74 cm**-1
  46:      1047.48 cm**-1
  47:      1048.58 cm**-1
  48:      1107.22 cm**-1
  49:      1163.57 cm**-1
  50:      1217.05 cm**-1
  51:      1257.15 cm**-1
  52:      1259.79 cm**-1
  53:      1269.63 cm**-1
  54:      1270.46 cm**-1
  55:      1282.07 cm**-1
  56:      1366.26 cm**-1
  57:      1374.70 cm**-1
  58:      1389.04 cm**-1
  59:      1389.32 cm**-1
  60:      1390.74 cm**-1
  61:      1401.65 cm**-1
  62:      1404.15 cm**-1
  63:      1404.39 cm**-1
  64:      1418.45 cm**-1
  65:      1436.90 cm**-1
  66:      1437.82 cm**-1
  67:      1442.54 cm**-1
  68:      1444.32 cm**-1
  69:      1444.61 cm**-1
  70:      1446.60 cm**-1
  71:      1459.63 cm**-1
  72:      1460.81 cm**-1
  73:      1461.99 cm**-1
  74:      1469.09 cm**-1
  75:      1469.74 cm**-1
  76:      1478.84 cm**-1
  77:      1480.26 cm**-1
  78:      1663.72 cm**-1
  79:      3063.31 cm**-1
  80:      3063.40 cm**-1
  81:      3066.57 cm**-1
  82:      3066.68 cm**-1
  83:      3077.01 cm**-1
  84:      3077.23 cm**-1
  85:      3166.72 cm**-1
  86:      3167.32 cm**-1
  87:      3168.49 cm**-1
  88:      3168.91 cm**-1
  89:      3170.67 cm**-1
  90:      3170.76 cm**-1
  91:      3173.08 cm**-1
  92:      3173.17 cm**-1
  93:      3178.55 cm**-1
  94:      3179.07 cm**-1
  95:      3187.87 cm**-1
  96:      3188.06 cm**-1
  97:      3286.89 cm**-1
  98:      3307.58 cm**-1

IR SPECTRUM
-----------

 Mode   freq       eps      Int      T**2         TX        TY        TZ
       cm**-1   L/(mol*cm) km/mol    a.u.
----------------------------------------------------------------------------
  6:     30.40   0.000003    0.02  0.000034  (-0.000919  0.002817  0.005037)
  7:     39.42   0.000009    0.05  0.000074  ( 0.000909 -0.005210 -0.006783)
  8:    124.90   0.003864   19.53  0.009654  ( 0.021315 -0.051913 -0.080652)
  9:    155.77   0.000413    2.09  0.000827  (-0.021903  0.007693 -0.016984)
 10:    159.52   0.000023    0.12  0.000046  (-0.001829 -0.002391 -0.006050)
 11:    223.73   0.000142    0.72  0.000198  (-0.002068  0.006463  0.012344)
 12:    237.18   0.000054    0.28  0.000072  (-0.001279 -0.005924 -0.005914)
 13:    265.55   0.000044    0.22  0.000051  ( 0.002949  0.005852 -0.002909)
 14:    274.10   0.000112    0.57  0.000128  (-0.007682 -0.006990  0.004451)
 15:    278.69   0.000142    0.72  0.000159  ( 0.004757  0.009581 -0.006646)
 16:    289.58   0.000202    1.02  0.000218  (-0.009512 -0.009636  0.005857)
 17:    300.11   0.000037    0.19  0.000038  (-0.003115  0.002461  0.004728)
 18:    309.49   0.000019    0.10  0.000020  (-0.000295  0.004337  0.000850)
 19:    347.32   0.001241    6.27  0.001115  ( 0.006914 -0.017451 -0.027618)
 20:    354.58   0.000209    1.06  0.000184  (-0.010910  0.005890 -0.005497)
 21:    366.23   0.000015    0.08  0.000013  (-0.000825 -0.003456  0.000675)
 22:    375.24   0.000979    4.95  0.000815  (-0.015602 -0.022544  0.007930)
 23:    407.33   0.000292    1.48  0.000224  ( 0.009013  0.010419 -0.005843)
 24:    453.47   0.002001   10.11  0.001377  (-0.008018  0.018874  0.030930)
 25:    474.19   0.000002    0.01  0.000001  (-0.000997 -0.000286  0.000018)
 26:    479.48   0.000227    1.15  0.000148  ( 0.009950 -0.004418  0.005384)
 27:    533.18   0.001650    8.34  0.000966  (-0.017466 -0.023529  0.010340)
 28:    580.93   0.000296    1.49  0.000159  (-0.009835  0.005456 -0.005691)
 29:    659.66   0.004304   21.75  0.002036  ( 0.026146  0.032088 -0.017973)
 30:    671.93   0.002197   11.10  0.001020  ( 0.004833 -0.018651 -0.025476)
 31:    687.45   0.000004    0.02  0.000002  (-0.000297  0.000899  0.000930)
 32:    757.00   0.013647   68.97  0.005626  (-0.014623  0.039142  0.062288)
 33:    845.91   0.000022    0.11  0.000008  ( 0.002189 -0.001364  0.001155)
 34:    855.90   0.001106    5.59  0.000403  ( 0.011159  0.015218 -0.006853)
 35:    891.62   0.000054    0.27  0.000019  (-0.000541  0.001984  0.003822)
 36:    940.96   0.000338    1.71  0.000112  (-0.004464  0.005296  0.008002)
 37:    941.67   0.000206    1.04  0.000068  (-0.001302  0.002602  0.007727)
 38:    950.36   0.000628    3.17  0.000206  (-0.010312  0.007031 -0.007105)
 39:    952.08   0.000310    1.57  0.000102  ( 0.008848 -0.001456  0.004621)
 40:    962.53   0.000029    0.15  0.000009  (-0.001242  0.001425  0.002412)
 41:    963.03   0.000026    0.13  0.000008  (-0.000217 -0.001561 -0.002447)
 42:   1004.30   0.002971   15.01  0.000923  ( 0.017197  0.022724 -0.010535)
 43:   1024.17   0.000533    2.70  0.000163  (-0.009419  0.006000 -0.006151)
 44:   1040.02   0.000010    0.05  0.000003  (-0.000848 -0.000748  0.001353)
 45:   1041.74   0.000023    0.12  0.000007  (-0.001199 -0.001688  0.001625)
 46:   1047.48   0.000182    0.92  0.000054  (-0.000860  0.003631  0.006353)
 47:   1048.58   0.000101    0.51  0.000030  (-0.002504  0.003190  0.003683)
 48:   1107.22   0.004694   23.72  0.001323  (-0.028532  0.015205 -0.016661)
 49:   1163.57   0.001302    6.58  0.000349  (-0.011676 -0.012885  0.006842)
 50:   1217.05   0.000725    3.66  0.000186  (-0.010383  0.006537 -0.005943)
 51:   1257.15   0.030585  154.56  0.007592  (-0.049518 -0.066612  0.026513)
 52:   1259.79   0.001057    5.34  0.000262  ( 0.007258 -0.011627  0.008599)
 53:   1269.63   0.000173    0.87  0.000042  ( 0.001080 -0.004879 -0.004181)
 54:   1270.46   0.006658   33.65  0.001635  ( 0.008458 -0.020187 -0.034005)
 55:   1282.07   0.027451  138.73  0.006682  (-0.046841 -0.059755  0.030281)
 56:   1366.26   0.001876    9.48  0.000428  (-0.012165 -0.014716  0.007990)
 57:   1374.70   0.000617    3.12  0.000140  ( 0.010003 -0.003830  0.005033)
 58:   1389.04   0.003074   15.54  0.000691  (-0.008967  0.017639  0.017295)
 59:   1389.32   0.007535   38.08  0.001692  ( 0.001895 -0.021949 -0.034742)
 60:   1390.74   0.006261   31.64  0.001405  (-0.030248  0.015546 -0.015759)
 61:   1401.65   0.000978    4.94  0.000218  ( 0.006971  0.009856 -0.008487)
 62:   1404.15   0.002613   13.21  0.000581  ( 0.016063  0.015151 -0.009655)
 63:   1404.39   0.000673    3.40  0.000150  ( 0.003846  0.008939 -0.007412)
 64:   1418.45   0.011335   57.28  0.002494  ( 0.040271 -0.020328  0.021419)
 65:   1436.90   0.000151    0.76  0.000033  (-0.001909  0.002624  0.004723)
 66:   1437.82   0.000194    0.98  0.000042  ( 0.001188  0.004479  0.004550)
 67:   1442.54   0.000091    0.46  0.000020  ( 0.004287  0.000917  0.000666)
 68:   1444.32   0.000032    0.16  0.000007  ( 0.000085  0.001405 -0.002206)
 69:   1444.61   0.000086    0.43  0.000018  ( 0.002445 -0.002177  0.002789)
 70:   1446.60   0.000034    0.17  0.000007  (-0.002018  0.001344 -0.001224)
 71:   1459.63   0.010750   54.33  0.002298  (-0.027827 -0.028832  0.026318)
 72:   1460.81   0.000504    2.54  0.000108  ( 0.003291  0.009557  0.002325)
 73:   1461.99   0.007755   39.19  0.001655  (-0.019786 -0.035241  0.004672)
 74:   1469.09   0.007371   37.25  0.001566  ( 0.019694  0.031846 -0.012797)
 75:   1469.74   0.001646    8.32  0.000350  ( 0.018215  0.003335  0.002575)
 76:   1478.84   0.001672    8.45  0.000353  ( 0.013570  0.012390 -0.003898)
 77:   1480.26   0.000843    4.26  0.000178  ( 0.000681  0.011526 -0.006658)
 78:   1663.72   0.000001    0.01  0.000000  ( 0.000406 -0.000169  0.000142)
 79:   3063.31   0.005889   29.76  0.000600  (-0.005006  0.016239  0.017640)
 80:   3063.40   0.005380   27.19  0.000548  ( 0.000761 -0.012833 -0.019566)
 81:   3066.57   0.002797   14.13  0.000285  ( 0.006732  0.007622 -0.013461)
 82:   3066.68   0.003717   18.78  0.000378  (-0.017194  0.006586 -0.006265)
 83:   3077.01   0.002763   13.96  0.000280  (-0.005411  0.011345 -0.011057)
 84:   3077.23   0.003496   17.67  0.000355  ( 0.018375 -0.001399  0.003866)
 85:   3166.72   0.003823   19.32  0.000377  ( 0.016325 -0.008832 -0.005676)
 86:   3167.32   0.003586   18.12  0.000353  (-0.004796  0.001692 -0.018096)
 87:   3168.49   0.004742   23.96  0.000467  ( 0.016728  0.004972  0.012746)
 88:   3168.91   0.004873   24.63  0.000480  ( 0.011069 -0.018438  0.004173)
 89:   3170.67   0.001334    6.74  0.000131  (-0.003057 -0.002597  0.010732)
 90:   3170.76   0.000993    5.02  0.000098  (-0.008705  0.002403  0.004025)
 91:   3173.08   0.003200   16.17  0.000315  (-0.012972 -0.011091  0.004836)
 92:   3173.17   0.007300   36.89  0.000718  (-0.020313  0.011426 -0.013220)
 93:   3178.55   0.019501   98.55  0.001915  (-0.021569 -0.036714  0.010071)
 94:   3179.07   0.003975   20.09  0.000390  (-0.013063 -0.013873  0.005203)
 95:   3187.87   0.008480   42.86  0.000830  (-0.008801  0.010060  0.025524)
 96:   3188.06   0.000705    3.56  0.000069  ( 0.005044 -0.001191 -0.006496)
 97:   3286.89   0.001193    6.03  0.000113  (-0.005761 -0.008104  0.003790)
 98:   3307.58   0.000147    0.74  0.000014  ( 0.002578 -0.001975  0.001814)

--------------------------
THERMOCHEMISTRY AT 298.15K
--------------------------

Temperature         ... 298.15 K
Pressure            ... 1.00 atm
Total Mass          ... 180.29 AMU

Throughout the following assumptions are being made:
  (1) The electronic state is orbitally nondegenerate
  (2) There are no thermally accessible electronically excited states
  (3) Hindered rotations indicated by low frequency modes are not
      treated as such but are treated as vibrations and this may
      cause some error
  (4) All equations used are the standard statistical mechanics
      equations for an ideal gas
  (5) All vibrations are strictly harmonic

freq.      30.40  E(vib)   ...       0.55
freq.      39.42  E(vib)   ...       0.54
freq.     124.90  E(vib)   ...       0.43
freq.     155.77  E(vib)   ...       0.40
freq.     159.52  E(vib)   ...       0.39
freq.     223.73  E(vib)   ...       0.33
freq.     237.18  E(vib)   ...       0.32
freq.     265.55  E(vib)   ...       0.29
freq.     274.10  E(vib)   ...       0.28
freq.     278.69  E(vib)   ...       0.28
freq.     289.58  E(vib)   ...       0.27
freq.     300.11  E(vib)   ...       0.26
freq.     309.49  E(vib)   ...       0.26
freq.     347.32  E(vib)   ...       0.23
freq.     354.58  E(vib)   ...       0.22
freq.     366.23  E(vib)   ...       0.22
freq.     375.24  E(vib)   ...       0.21
freq.     407.33  E(vib)   ...       0.19
freq.     453.47  E(vib)   ...       0.16
freq.     474.19  E(vib)   ...       0.15
freq.     479.48  E(vib)   ...       0.15
freq.     533.18  E(vib)   ...       0.13
freq.     580.93  E(vib)   ...       0.11
freq.     659.66  E(vib)   ...       0.08
freq.     671.93  E(vib)   ...       0.08
freq.     687.45  E(vib)   ...       0.07
freq.     757.00  E(vib)   ...       0.06
freq.     845.91  E(vib)   ...       0.04
freq.     855.90  E(vib)   ...       0.04
freq.     891.62  E(vib)   ...       0.03
freq.     940.96  E(vib)   ...       0.03
freq.     941.67  E(vib)   ...       0.03
freq.     950.36  E(vib)   ...       0.03
freq.     952.08  E(vib)   ...       0.03
freq.     962.53  E(vib)   ...       0.03
freq.     963.03  E(vib)   ...       0.03
freq.    1004.30  E(vib)   ...       0.02
freq.    1024.17  E(vib)   ...       0.02
freq.    1040.02  E(vib)   ...       0.02
freq.    1041.74  E(vib)   ...       0.02
freq.    1047.48  E(vib)   ...       0.02
freq.    1048.58  E(vib)   ...       0.02
freq.    1107.22  E(vib)   ...       0.02
freq.    1163.57  E(vib)   ...       0.01
freq.    1217.05  E(vib)   ...       0.01
freq.    1257.15  E(vib)   ...       0.01
freq.    1259.79  E(vib)   ...       0.01
freq.    1269.63  E(vib)   ...       0.01
freq.    1270.46  E(vib)   ...       0.01
freq.    1282.07  E(vib)   ...       0.01
freq.    1366.26  E(vib)   ...       0.01
freq.    1374.70  E(vib)   ...       0.01
freq.    1389.04  E(vib)   ...       0.00
freq.    1389.32  E(vib)   ...       0.00
freq.    1390.74  E(vib)   ...       0.00
freq.    1401.65  E(vib)   ...       0.00
freq.    1404.15  E(vib)   ...       0.00
freq.    1404.39  E(vib)   ...       0.00
freq.    1418.45  E(vib)   ...       0.00
freq.    1436.90  E(vib)   ...       0.00
freq.    1437.82  E(vib)   ...       0.00
freq.    1442.54  E(vib)   ...       0.00
freq.    1444.32  E(vib)   ...       0.00
freq.    1444.61  E(vib)   ...       0.00
freq.    1446.60  E(vib)   ...       0.00
freq.    1459.63  E(vib)   ...       0.00
freq.    1460.81  E(vib)   ...       0.00
freq.    1461.99  E(vib)   ...       0.00
freq.    1469.09  E(vib)   ...       0.00
freq.    1469.74  E(vib)   ...       0.00
freq.    1478.84  E(vib)   ...       0.00
freq.    1480.26  E(vib)   ...       0.00
freq.    1663.72  E(vib)   ...       0.00
freq.    3063.31  E(vib)   ...       0.00
freq.    3063.40  E(vib)   ...       0.00
freq.    3066.57  E(vib)   ...       0.00
freq.    3066.68  E(vib)   ...       0.00
freq.    3077.01  E(vib)   ...       0.00
freq.    3077.23  E(vib)   ...       0.00
freq.    3166.72  E(vib)   ...       0.00
freq.    3167.32  E(vib)   ...       0.00
freq.    3168.49  E(vib)   ...       0.00
freq.    3168.91  E(vib)   ...       0.00
freq.    3170.67  E(vib)   ...       0.00
freq.    3170.76  E(vib)   ...       0.00
freq.    3173.08  E(vib)   ...       0.00
freq.    3173.17  E(vib)   ...       0.00
freq.    3178.55  E(vib)   ...       0.00
freq.    3179.07  E(vib)   ...       0.00
freq.    3187.87  E(vib)   ...       0.00
freq.    3188.06  E(vib)   ...       0.00
freq.    3286.89  E(vib)   ...       0.00
freq.    3307.58  E(vib)   ...       0.00

------------
INNER ENERGY
------------

The inner energy is: U= E(el) + E(ZPE) + E(vib) + E(rot) + E(trans)
    E(el)   - is the total energy from the electronic structure calculation
              = E(kin-el) + E(nuc-el) + E(el-el) + E(nuc-nuc)
    E(ZPE)  - the the zero temperature vibrational energy from the frequency calculation
    E(vib)  - the the finite temperature correction to E(ZPE) due to population
              of excited vibrational states
    E(rot)  - is the rotational thermal energy
    E(trans)- is the translational thermal energy

Summary of contributions to the inner energy U:
Electronic energy                ...   -540.18740401 Eh
Zero point energy                ...      0.29709736 Eh     186.43 kcal/mol
Thermal vibrational correction   ...      0.01153743 Eh       7.24 kcal/mol
Thermal rotational correction    ...      0.00141627 Eh       0.89 kcal/mol
Thermal translational correction ...      0.00141627 Eh       0.89 kcal/mol
-----------------------------------------------------------------------
Total thermal energy                   -539.87593668 Eh

Summary of corrections to the electronic energy:
(perhaps to be used in another calculation)
Total thermal correction                  0.01436998 Eh       9.02 kcal/mol
Non-thermal (ZPE) correction              0.29709736 Eh     186.43 kcal/mol
-----------------------------------------------------------------------
Total correction                          0.31146734 Eh     195.45 kcal/mol

--------
ENTHALPY
--------

The enthalpy is H = U + kB*T
                kB is Boltzmann's constant
Total free energy                 ...   -539.87593668 Eh
Thermal Enthalpy correction       ...      0.00094421 Eh       0.59 kcal/mol
-----------------------------------------------------------------------
Total Enthalpy                    ...   -539.87499247 Eh

Note: Only C1 symmetry has been detected, increase convergence thresholds
      if your molecule has a higher symmetry. Symmetry factor of 1.0 is
      used for the rotational entropy correction.

Note: Rotational entropy computed according to Herzberg
Infrared and Raman Spectra, Chapter V,1, Van Nostrand Reinhold, 1945

Rotational constants in cm-1:     0.056252     0.014839     0.013903

                             ****ORCA TERMINATED NORMALLY****
TOTAL RUN TIME: 0 days 0 hours 39 minutes 40 seconds 488 msec
