                         Program Version 5.0.3 -  RELEASE  -
|  1> ! Opt FREQ wB97X D4 Def2-SVP SlowConv TightSCF DEFGRID2 Def2/J RIJCOSX
|  2> %MAXCORE 4000
|  3> %scf MaxIter 20000 end
|  4> %geom
|  5> MaxIter 500
|  6> end
|  7> %PAL NPROCS 8 END
|  8>
|  9> * xyz 0 1
| 10> C -0.11019 0.72357 -1.67
| 11> C -0.12216 -0.6154 -1.76657
| 12> C -0.07915 -0.04958 0.52337
| 13> H -0.03585 1.47606 -2.47529
| 14> H -0.19447 -1.28606 -2.59316
| 15> N 0.00498 1.04551 -0.32002
| 16> N -0.20779 -1.02115 -0.4743
| 17> C 0.11982 2.36717 0.16104
| 18> C -0.98601 3.255 0.41582
| 19> C 1.41913 2.85226 0.36983
| 20> C -0.82642 4.55811 0.81326
| 21> C 1.59892 4.22545 0.71968
| 22> C 0.48109 5.06249 0.91743
| 23> H -1.65035 5.17358 1.09746
| 24> H 2.61724 4.62392 0.81054
| 25> H 0.55276 6.13667 1.17424
| 26> C -0.21272 -2.39111 -0.14807
| 27> C -1.37023 -3.20923 -0.43637
| 28> C 0.95128 -2.95398 0.43467
| 29> C -1.29457 -4.60273 -0.18394
| 30> C 1.0934 -4.31932 0.56383
| 31> C -0.03313 -5.14517 0.29417
| 32> H -2.16057 -5.30044 -0.2131
| 33> H 2.02019 -4.79189 0.84993
| 34> H 0.01965 -6.20906 0.47947
| 35> C 2.60725 1.92744 0.3735
| 36> H 2.38632 1.10776 1.07647
| 37> H 2.9173 1.517 -0.58295
| 38> H 3.42784 2.50395 0.82815
| 39> C 2.08212 -2.05221 0.83752
| 40> H 2.3679 -1.43138 -0.01846
| 41> H 1.81174 -1.4069 1.67624
| 42> H 2.94255 -2.64033 1.18295
| 43> C -2.39132 2.96382 0.02628
| 44> H -2.93918 3.8936 0.00513
| 45> H -2.54694 2.31127 -0.88779
| 46> H -2.72461 2.31214 0.85308
| 47> C -2.70193 -2.65298 -0.98651
| 48> H -3.02882 -1.71216 -0.49318
| 49> H -2.64051 -2.40325 -2.03492
| 50> H -3.49304 -3.43084 -0.89482
| 51> **                         ****END OF INPUT****
 Total Charge           Charge          ....    0
 Multiplicity           Mult            ....    1
 Number of Electrons    NEL             ....  148
Dispersion correction           -0.009540401
FINAL SINGLE POINT ENERGY      -844.680043977483
Dispersion correction            ... Starting D4
Dispersion correction           -0.009543567
FINAL SINGLE POINT ENERGY      -844.712477027413
Dispersion correction            ... Starting D4
Dispersion correction           -0.009593593
FINAL SINGLE POINT ENERGY      -844.724890134434
Dispersion correction            ... Starting D4
FINAL SINGLE POINT ENERGY      -844.729780075152
FINAL SINGLE POINT ENERGY      -844.731973569730
FINAL SINGLE POINT ENERGY      -844.732534130581
FINAL SINGLE POINT ENERGY      -844.732668195005
FINAL SINGLE POINT ENERGY      -844.732784338104
FINAL SINGLE POINT ENERGY      -844.732839761702
FINAL SINGLE POINT ENERGY      -844.732878460723
FINAL SINGLE POINT ENERGY      -844.732893816130
Dispersion correction           -0.009608970
FINAL SINGLE POINT ENERGY      -844.732899650341
Dispersion correction            ... Starting D4
Dispersion correction           -0.009609472
FINAL SINGLE POINT ENERGY      -844.732903617029
Dispersion correction            ... Starting D4
                    ***********************HURRAY********************

CARTESIAN COORDINATES (ANGSTROEM)
---------------------------------
  C      0.307206    0.760123   -1.724586
  C      0.216640   -0.587622   -1.795827
  C     -0.071982   -0.006195    0.407699
  H      0.477435    1.511721   -2.493201
  H      0.294439   -1.270605   -2.639556
  N      0.129578    1.084213   -0.383701
  N     -0.014014   -1.024071   -0.496027
  C      0.157280    2.424773    0.118128
  C     -1.056643    3.073924    0.381191
  C      1.398488    3.039947    0.330644
  C     -1.006147    4.385939    0.859109
  C      1.406312    4.353761    0.806516
  C      0.213979    5.023211    1.066336
  H     -1.941471    4.912802    1.070180
  H      2.364492    4.852660    0.979840
  H      0.235928    6.050951    1.439156
  C     -0.169701   -2.402267   -0.141031
  C     -1.399616   -3.028525   -0.384863
  C      0.913818   -3.076602    0.438068
  C     -1.524988   -4.379793   -0.051116
  C      0.746908   -4.425589    0.761602
  C     -0.459863   -5.074222    0.515214
  H     -2.477341   -4.887854   -0.230389
  H      1.578958   -4.970185    1.217870
  H     -0.574209   -6.130534    0.773880
  C      2.679224    2.288782    0.079019
  H      2.694359    1.348235    0.652230
  H      2.793285    2.018451   -0.982664
  H      3.550832    2.890304    0.372031
  C      2.202706   -2.353685    0.722920
  H      2.592031   -1.854452   -0.178654
  H      2.039440   -1.568933    1.478294
  H      2.969233   -3.048874    1.092584
  C     -2.366826    2.361622    0.177426
  H     -3.214288    3.040604    0.345746
  H     -2.446366    1.952045   -0.842233
  H     -2.451393    1.510413    0.871167
  C     -2.553481   -2.252591   -0.963986
  H     -2.744287   -1.342709   -0.373475
  H     -2.349381   -1.927395   -1.996660
  H     -3.469054   -2.860179   -0.974274

 Multiplicity           Mult            ....    1
 Number of Electrons    NEL             ....  148
 Basis Dimension        Dim             ....  394

ORBITAL ENERGIES
----------------

  NO   OCC          E(Eh)            E(eV)
   0   2.0000     -14.452990      -393.2859
   1   2.0000     -14.452970      -393.2853
   2   2.0000     -10.305719      -280.4329
   3   2.0000     -10.305656      -280.4312
   4   2.0000     -10.304383      -280.3965
   5   2.0000     -10.303780      -280.3801
   6   2.0000     -10.285014      -279.8695
   7   2.0000     -10.284925      -279.8670
   8   2.0000     -10.283927      -279.8399
   9   2.0000     -10.283758      -279.8353
  10   2.0000     -10.277373      -279.6615
  11   2.0000     -10.275593      -279.6131
  12   2.0000     -10.275592      -279.6131
  13   2.0000     -10.272022      -279.5159
  14   2.0000     -10.271891      -279.5124
  15   2.0000     -10.271816      -279.5103
  16   2.0000     -10.271782      -279.5094
  17   2.0000     -10.271252      -279.4950
  18   2.0000     -10.271219      -279.4941
  19   2.0000     -10.267166      -279.3838
  20   2.0000     -10.266760      -279.3727
  21   2.0000      -1.154449       -31.4141
  22   2.0000      -1.055206       -28.7136
  23   2.0000      -0.993957       -27.0470
  24   2.0000      -0.973001       -26.4767
  25   2.0000      -0.910716       -24.7819
  26   2.0000      -0.910546       -24.7772
  27   2.0000      -0.904132       -24.6027
  28   2.0000      -0.870816       -23.6961
  29   2.0000      -0.867400       -23.6031
  30   2.0000      -0.827436       -22.5157
  31   2.0000      -0.809496       -22.0275
  32   2.0000      -0.799813       -21.7640
  33   2.0000      -0.799101       -21.7446
  34   2.0000      -0.758663       -20.6443
  35   2.0000      -0.735065       -20.0021
  36   2.0000      -0.697034       -18.9673
  37   2.0000      -0.694970       -18.9111
  38   2.0000      -0.692150       -18.8344
  39   2.0000      -0.676816       -18.4171
  40   2.0000      -0.649553       -17.6752
  41   2.0000      -0.615689       -16.7538
  42   2.0000      -0.609125       -16.5751
  43   2.0000      -0.596046       -16.2192
  44   2.0000      -0.591756       -16.1025
  45   2.0000      -0.560926       -15.2636
  46   2.0000      -0.556215       -15.1354
  47   2.0000      -0.551386       -15.0040
  48   2.0000      -0.534191       -14.5361
  49   2.0000      -0.532983       -14.5032
  50   2.0000      -0.529200       -14.4003
  51   2.0000      -0.523551       -14.2465
  52   2.0000      -0.522828       -14.2269
  53   2.0000      -0.518969       -14.1219
  54   2.0000      -0.518286       -14.1033
  55   2.0000      -0.512360       -13.9420
  56   2.0000      -0.512239       -13.9387
  57   2.0000      -0.510547       -13.8927
  58   2.0000      -0.507998       -13.8233
  59   2.0000      -0.479310       -13.0427
  60   2.0000      -0.477070       -12.9817
  61   2.0000      -0.458534       -12.4774
  62   2.0000      -0.456135       -12.4121
  63   2.0000      -0.454234       -12.3603
  64   2.0000      -0.450856       -12.2684
  65   2.0000      -0.444630       -12.0990
  66   2.0000      -0.443262       -12.0618
  67   2.0000      -0.388608       -10.5746
  68   2.0000      -0.341032        -9.2800
  69   2.0000      -0.340357        -9.2616
  70   2.0000      -0.334339        -9.0978
  71   2.0000      -0.333082        -9.0636
  72   2.0000      -0.327931        -8.9235
  73   2.0000      -0.313202        -8.5227
  74   0.0000       0.066561         1.8112
  75   0.0000       0.071159         1.9363
  76   0.0000       0.077461         2.1078
  77   0.0000       0.078030         2.1233
  78   0.0000       0.114146         3.1061

MULLIKEN ATOMIC CHARGES
-----------------------
   0 C :    0.049592
   1 C :    0.049621
   2 C :   -0.065799
   3 H :    0.041087
   4 H :    0.040990
   5 N :   -0.221757
   6 N :   -0.222037
   7 C :    0.064380
   8 C :   -0.085108
   9 C :   -0.092423
  10 C :   -0.071081
  11 C :   -0.071791
  12 C :    0.026393
  13 H :   -0.003374
  14 H :   -0.003858
  15 H :    0.010814
  16 C :    0.064928
  17 C :   -0.092849
  18 C :   -0.086434
  19 C :   -0.071814
  20 C :   -0.070434
  21 C :    0.026019
  22 H :   -0.003734
  23 H :   -0.003350
  24 H :    0.010941
  25 C :    0.086177
  26 H :    0.048685
  27 H :    0.036630
  28 H :    0.021828
  29 C :    0.082714
  30 H :    0.030770
  31 H :    0.066388
  32 H :    0.018226
  33 C :    0.081430
  34 H :    0.018746
  35 H :    0.031099
  36 H :    0.065638
  37 C :    0.085643
  38 H :    0.047145
  39 H :    0.037356
  40 H :    0.022606
Sum of atomic charges:   -0.0000000

LOEWDIN ATOMIC CHARGES
----------------------
   0 C :   -0.029005
   1 C :   -0.028683
   2 C :   -0.223996
   3 H :    0.033060
   4 H :    0.033011
   5 N :    0.038082
   6 N :    0.038004
   7 C :    0.009926
   8 C :   -0.015412
   9 C :   -0.021415
  10 C :   -0.039380
  11 C :   -0.040677
  12 C :   -0.021514
  13 H :    0.028185
  14 H :    0.027843
  15 H :    0.031813
  16 C :    0.010028
  17 C :   -0.021893
  18 C :   -0.015310
  19 C :   -0.040628
  20 C :   -0.039226
  21 C :   -0.021701
  22 H :    0.027870
  23 H :    0.028217
  24 H :    0.031818
  25 C :   -0.050352
  26 H :    0.040872
  27 H :    0.034102
  28 H :    0.030803
  29 C :   -0.051550
  30 H :    0.033717
  31 H :    0.044056
  32 H :    0.028835
  33 C :   -0.051505
  34 H :    0.029052
  35 H :    0.033792
  36 H :    0.043922
  37 C :   -0.050443
  38 H :    0.040248
  39 H :    0.034380
  40 H :    0.031054

  Mayer bond orders larger than 0.100000
B(  0-C ,  1-C ) :   1.6267 B(  0-C ,  3-H ) :   0.9916 B(  0-C ,  5-N ) :   1.0931
B(  1-C ,  4-H ) :   0.9916 B(  1-C ,  6-N ) :   1.0934 B(  2-C ,  5-N ) :   1.1968
B(  2-C ,  6-N ) :   1.1959 B(  5-N ,  7-C ) :   0.9489 B(  6-N , 16-C ) :   0.9483
B(  7-C ,  8-C ) :   1.4381 B(  7-C ,  9-C ) :   1.4367 B(  8-C , 10-C ) :   1.3968
B(  8-C , 33-C ) :   1.0542 B(  9-C , 11-C ) :   1.3968 B(  9-C , 25-C ) :   1.0523
B( 10-C , 12-C ) :   1.3882 B( 10-C , 13-H ) :   0.9895 B( 11-C , 12-C ) :   1.3894
B( 11-C , 14-H ) :   0.9895 B( 12-C , 15-H ) :   0.9899 B( 16-C , 17-C ) :   1.4370
B( 16-C , 18-C ) :   1.4374 B( 17-C , 19-C ) :   1.3959 B( 17-C , 37-C ) :   1.0525
B( 18-C , 20-C ) :   1.3974 B( 18-C , 29-C ) :   1.0549 B( 19-C , 21-C ) :   1.3897
B( 19-C , 22-H ) :   0.9899 B( 20-C , 21-C ) :   1.3874 B( 20-C , 23-H ) :   0.9895
B( 21-C , 24-H ) :   0.9899 B( 25-C , 26-H ) :   0.9549 B( 25-C , 27-H ) :   0.9508
B( 25-C , 28-H ) :   0.9583 B( 29-C , 30-H ) :   0.9552 B( 29-C , 31-H ) :   0.9465
B( 29-C , 32-H ) :   0.9565 B( 33-C , 34-H ) :   0.9567 B( 33-C , 35-H ) :   0.9554
B( 33-C , 36-H ) :   0.9473 B( 37-C , 38-H ) :   0.9554 B( 37-C , 39-H ) :   0.9507
B( 37-C , 40-H ) :   0.9586

Dispersion correction           -0.009610167
FINAL SINGLE POINT ENERGY      -844.732906700624

DIPOLE MOMENT
-------------
                                X             Y             Z
Electronic contribution:      0.02364       0.00452      -0.11615
Nuclear contribution   :      0.12258       0.03808      -0.83889
                        -----------------------------------------
Total Dipole Moment    :      0.14622       0.04261      -0.95505
                        -----------------------------------------
Magnitude (a.u.)       :      0.96711
Magnitude (Debye)      :      2.45821

Dispersion correction in the Hessian             ... Starting D4

VIBRATIONAL FREQUENCIES
-----------------------

Scaling factor for frequencies =  1.000000000  (already applied!)

   0:         0.00 cm**-1
   1:         0.00 cm**-1
   2:         0.00 cm**-1
   3:         0.00 cm**-1
   4:         0.00 cm**-1
   5:         0.00 cm**-1
   6:        15.01 cm**-1
   7:        20.52 cm**-1
   8:        55.15 cm**-1
   9:        63.75 cm**-1
  10:        91.13 cm**-1
  11:        93.83 cm**-1
  12:       124.17 cm**-1
  13:       138.70 cm**-1
  14:       147.36 cm**-1
  15:       156.92 cm**-1
  16:       171.36 cm**-1
  17:       202.56 cm**-1
  18:       210.39 cm**-1
  19:       238.72 cm**-1
  20:       239.82 cm**-1
  21:       286.15 cm**-1
  22:       308.61 cm**-1
  23:       336.27 cm**-1
  24:       358.08 cm**-1
  25:       362.30 cm**-1
  26:       398.38 cm**-1
  27:       437.37 cm**-1
  28:       485.67 cm**-1
  29:       494.83 cm**-1
  30:       535.71 cm**-1
  31:       536.38 cm**-1
  32:       544.14 cm**-1
  33:       548.60 cm**-1
  34:       578.41 cm**-1
  35:       596.49 cm**-1
  36:       602.08 cm**-1
  37:       629.68 cm**-1
  38:       681.63 cm**-1
  39:       686.02 cm**-1
  40:       754.51 cm**-1
  41:       770.83 cm**-1
  42:       782.80 cm**-1
  43:       788.23 cm**-1
  44:       796.12 cm**-1
  45:       800.42 cm**-1
  46:       805.72 cm**-1
  47:       881.04 cm**-1
  48:       932.17 cm**-1
  49:       938.37 cm**-1
  50:       945.65 cm**-1
  51:       945.69 cm**-1
  52:       966.23 cm**-1
  53:       974.03 cm**-1
  54:      1009.57 cm**-1
  55:      1010.03 cm**-1
  56:      1026.30 cm**-1
  57:      1028.34 cm**-1
  58:      1059.18 cm**-1
  59:      1060.70 cm**-1
  60:      1061.98 cm**-1
  61:      1064.64 cm**-1
  62:      1064.88 cm**-1
  63:      1065.14 cm**-1
  64:      1092.92 cm**-1
  65:      1097.77 cm**-1
  66:      1103.65 cm**-1
  67:      1130.95 cm**-1
  68:      1143.35 cm**-1
  69:      1180.03 cm**-1
  70:      1180.23 cm**-1
  71:      1267.93 cm**-1
  72:      1279.40 cm**-1
  73:      1281.66 cm**-1
  74:      1300.98 cm**-1
  75:      1304.39 cm**-1
  76:      1327.08 cm**-1
  77:      1335.73 cm**-1
  78:      1337.89 cm**-1
  79:      1372.79 cm**-1
  80:      1401.73 cm**-1
  81:      1402.90 cm**-1
  82:      1404.19 cm**-1
  83:      1409.24 cm**-1
  84:      1425.36 cm**-1
  85:      1445.03 cm**-1
  86:      1454.32 cm**-1
  87:      1457.04 cm**-1
  88:      1461.20 cm**-1
  89:      1461.80 cm**-1
  90:      1463.08 cm**-1
  91:      1466.77 cm**-1
  92:      1470.97 cm**-1
  93:      1476.78 cm**-1
  94:      1538.25 cm**-1
  95:      1538.73 cm**-1
  96:      1560.79 cm**-1
  97:      1566.79 cm**-1
  98:      1655.97 cm**-1
  99:      1704.91 cm**-1
 100:      1706.52 cm**-1
 101:      1709.47 cm**-1
 102:      1710.02 cm**-1
 103:      3067.24 cm**-1
 104:      3067.81 cm**-1
 105:      3068.70 cm**-1
 106:      3069.21 cm**-1
 107:      3156.76 cm**-1
 108:      3156.85 cm**-1
 109:      3157.81 cm**-1
 110:      3158.02 cm**-1
 111:      3182.71 cm**-1
 112:      3182.94 cm**-1
 113:      3183.19 cm**-1
 114:      3183.49 cm**-1
 115:      3204.09 cm**-1
 116:      3204.92 cm**-1
 117:      3211.88 cm**-1
 118:      3212.77 cm**-1
 119:      3228.21 cm**-1
 120:      3228.95 cm**-1
 121:      3285.65 cm**-1
 122:      3308.47 cm**-1

IR SPECTRUM
-----------

 Mode   freq       eps      Int      T**2         TX        TY        TZ
       cm**-1   L/(mol*cm) km/mol    a.u.
----------------------------------------------------------------------------
  6:     15.01   0.000003    0.02  0.000072  (-0.007064  0.001227 -0.004540)
  7:     20.52   0.000022    0.11  0.000338  ( 0.017405 -0.005774 -0.001194)
  8:     55.15   0.000035    0.17  0.000195  (-0.009655  0.002129  0.009878)
  9:     63.75   0.000979    4.95  0.004795  (-0.065443  0.019010 -0.012265)
 10:     91.13   0.000000    0.00  0.000001  (-0.000911  0.000379  0.000097)
 11:     93.83   0.000086    0.43  0.000286  ( 0.016405  0.002598  0.003175)
 12:    124.17   0.000443    2.24  0.001114  (-0.004058 -0.002044  0.033062)
 13:    138.70   0.000239    1.21  0.000537  (-0.011869  0.008267  0.018096)
 14:    147.36   0.000258    1.30  0.000546  ( 0.009565 -0.020619  0.005420)
 15:    156.92   0.000063    0.32  0.000125  (-0.004774  0.009556  0.003232)
 16:    171.36   0.000029    0.14  0.000052  ( 0.001666 -0.005097 -0.004838)
 17:    202.56   0.001080    5.46  0.001663  ( 0.006211 -0.040253 -0.002093)
 18:    210.39   0.000372    1.88  0.000552  ( 0.003282  0.005198 -0.022686)
 19:    238.72   0.000011    0.05  0.000014  ( 0.001218  0.001072  0.003344)
 20:    239.82   0.000019    0.10  0.000024  ( 0.004037  0.002643  0.001093)
 21:    286.15   0.000615    3.11  0.000670  ( 0.002651  0.025752  0.000259)
 22:    308.61   0.001729    8.74  0.001748  (-0.039731  0.010201 -0.008086)
 23:    336.27   0.000918    4.64  0.000852  ( 0.006943 -0.000340 -0.028341)
 24:    358.08   0.000582    2.94  0.000507  ( 0.003594  0.000971 -0.022202)
 25:    362.30   0.000026    0.13  0.000023  ( 0.000795  0.000508 -0.004683)
 26:    398.38   0.000664    3.35  0.000520  (-0.007056 -0.021611 -0.001791)
 27:    437.37   0.000037    0.19  0.000026  ( 0.004177  0.002833  0.000881)
 28:    485.67   0.000101    0.51  0.000065  ( 0.007833 -0.001576  0.001154)
 29:    494.83   0.000001    0.01  0.000001  (-0.000426  0.000314  0.000718)
 30:    535.71   0.000080    0.40  0.000047  ( 0.006401  0.002109  0.001068)
 31:    536.38   0.000013    0.07  0.000008  (-0.002579 -0.000952 -0.000363)
 32:    544.14   0.000093    0.47  0.000053  ( 0.006886  0.002034  0.001332)
 33:    548.60   0.000008    0.04  0.000005  ( 0.000102  0.000269 -0.002146)
 34:    578.41   0.000173    0.87  0.000093  (-0.001546 -0.000576  0.009507)
 35:    596.49   0.000060    0.30  0.000031  (-0.000774  0.000620  0.005500)
 36:    602.08   0.000100    0.50  0.000052  (-0.001269 -0.007072  0.000308)
 37:    629.68   0.001851    9.35  0.000917  ( 0.003117  0.030075  0.001720)
 38:    681.63   0.000883    4.46  0.000404  (-0.017972 -0.007949 -0.004233)
 39:    686.02   0.000053    0.27  0.000024  ( 0.002746  0.001708 -0.003709)
 40:    754.51   0.006583   33.27  0.002723  (-0.051604  0.002503 -0.007325)
 41:    770.83   0.000020    0.10  0.000008  ( 0.000429 -0.000547  0.002741)
 42:    782.80   0.000955    4.83  0.000381  ( 0.000105 -0.019435 -0.001713)
 43:    788.23   0.000299    1.51  0.000118  ( 0.001978  0.000660 -0.010683)
 44:    796.12   0.000720    3.64  0.000282  (-0.004645 -0.015861 -0.003008)
 45:    800.42   0.007075   35.75  0.002758  (-0.014868  0.016429  0.047616)
 46:    805.72   0.005901   29.82  0.002286  (-0.001811  0.024845 -0.040805)
 47:    881.04   0.000018    0.09  0.000006  ( 0.001783  0.000066  0.001816)
 48:    932.17   0.000003    0.01  0.000001  (-0.000179  0.000941  0.000050)
 49:    938.37   0.000008    0.04  0.000003  ( 0.000592  0.001512  0.000060)
 50:    945.65   0.000563    2.84  0.000186  ( 0.012544  0.003240  0.004219)
 51:    945.69   0.000414    2.09  0.000137  (-0.011326 -0.002779  0.000841)
 52:    966.23   0.007618   38.50  0.002460  (-0.002575 -0.049456 -0.002787)
 53:    974.03   0.000436    2.20  0.000140  (-0.001668 -0.001206  0.011642)
 54:   1009.57   0.001274    6.44  0.000394  (-0.000012  0.019783  0.001525)
 55:   1010.03   0.000079    0.40  0.000025  ( 0.000770  0.003622 -0.003293)
 56:   1026.30   0.000030    0.15  0.000009  ( 0.000281 -0.000774  0.002883)
 57:   1028.34   0.000027    0.14  0.000008  ( 0.000827 -0.000153 -0.002743)
 58:   1059.18   0.000577    2.91  0.000170  (-0.000353  0.000735  0.013010)
 59:   1060.70   0.000414    2.09  0.000122  ( 0.001800  0.001411 -0.010798)
 60:   1061.98   0.000691    3.49  0.000203  (-0.000838  0.004518 -0.013493)
 61:   1064.64   0.000251    1.27  0.000074  ( 0.005932  0.004015 -0.004717)
 62:   1064.88   0.000965    4.88  0.000283  ( 0.004083 -0.002933 -0.016048)
 63:   1065.14   0.000149    0.75  0.000044  ( 0.000599  0.002716  0.005997)
 64:   1092.92   0.003168   16.01  0.000905  (-0.004913 -0.002988  0.029523)
 65:   1097.77   0.000145    0.73  0.000041  ( 0.001266 -0.002929 -0.005565)
 66:   1103.65   0.000360    1.82  0.000102  (-0.001720  0.000738  0.009912)
 67:   1130.95   0.004091   20.67  0.001129  (-0.001793 -0.033469 -0.002320)
 68:   1143.35   0.000151    0.76  0.000041  ( 0.000945  0.005425 -0.003284)
 69:   1180.03   0.000324    1.64  0.000086  ( 0.009233  0.000067 -0.000670)
 70:   1180.23   0.000458    2.31  0.000121  (-0.010433  0.000711 -0.003425)
 71:   1267.93   0.004443   22.45  0.001094  (-0.002362 -0.032929 -0.001921)
 72:   1279.40   0.000117    0.59  0.000028  ( 0.001755 -0.005022 -0.000421)
 73:   1281.66   0.000167    0.85  0.000041  ( 0.001776 -0.006132  0.000052)
 74:   1300.98   0.000006    0.03  0.000001  (-0.000064  0.000872  0.000833)
 75:   1304.39   0.000367    1.85  0.000088  ( 0.000054 -0.009348 -0.000543)
 76:   1327.08   0.002602   13.15  0.000612  ( 0.000264 -0.024707 -0.001217)
 77:   1335.73   0.000003    0.02  0.000001  (-0.000877 -0.000018 -0.000129)
 78:   1337.89   0.001076    5.44  0.000251  ( 0.015189  0.003717  0.002543)
 79:   1372.79   0.000897    4.53  0.000204  (-0.001757 -0.000209  0.014169)
 80:   1401.73   0.000116    0.59  0.000026  ( 0.004250  0.000492 -0.002750)
 81:   1402.90   0.000350    1.77  0.000078  ( 0.008674 -0.000332  0.001561)
 82:   1404.19   0.000101    0.51  0.000022  ( 0.004539 -0.000671  0.001182)
 83:   1409.24   0.000468    2.37  0.000104  (-0.001591 -0.010044 -0.000508)
 84:   1425.36   0.000101    0.51  0.000022  (-0.000700  0.000185  0.004647)
 85:   1445.03   0.011338   57.30  0.002449  (-0.003058 -0.048992 -0.006243)
 86:   1454.32   0.002038   10.30  0.000437  ( 0.006368  0.013133 -0.014974)
 87:   1457.04   0.002803   14.17  0.000600  ( 0.008711  0.000750 -0.022889)
 88:   1461.20   0.001155    5.84  0.000247  (-0.003349  0.002240  0.015183)
 89:   1461.80   0.000785    3.97  0.000168  ( 0.005302  0.004722 -0.010821)
 90:   1463.08   0.002320   11.72  0.000495  ( 0.005867 -0.002222 -0.021340)
 91:   1466.77   0.004483   22.66  0.000954  (-0.026615  0.008568 -0.013118)
 92:   1470.97   0.000370    1.87  0.000078  ( 0.002401  0.000230  0.008524)
 93:   1476.78   0.000477    2.41  0.000101  (-0.000908 -0.009875 -0.001559)
 94:   1538.25   0.001601    8.09  0.000325  ( 0.015952 -0.001103  0.008312)
 95:   1538.73   0.004412   22.30  0.000895  (-0.029813  0.001776 -0.001654)
 96:   1560.79   0.040446  204.40  0.008087  ( 0.006748  0.089524  0.005174)
 97:   1566.79   0.001397    7.06  0.000278  (-0.002518 -0.003430  0.016131)
 98:   1655.97   0.000143    0.72  0.000027  ( 0.000872  0.000554 -0.005083)
 99:   1704.91   0.000380    1.92  0.000070  (-0.000113 -0.008329 -0.000362)
100:   1706.52   0.000005    0.02  0.000001  ( 0.000488 -0.000741 -0.000311)
101:   1709.47   0.000058    0.29  0.000011  ( 0.000216 -0.000179  0.003235)
102:   1710.02   0.001902    9.61  0.000347  (-0.018392 -0.000642 -0.002892)
103:   3067.24   0.004274   21.60  0.000435  (-0.020633 -0.002566 -0.001599)
104:   3067.81   0.003762   19.01  0.000383  ( 0.018714  0.001895  0.005374)
105:   3068.70   0.001675    8.46  0.000170  (-0.008108  0.006400 -0.007977)
106:   3069.21   0.002139   10.81  0.000217  ( 0.012179 -0.007297 -0.003987)
107:   3156.76   0.001182    5.98  0.000117  ( 0.003945 -0.000181 -0.010064)
108:   3156.85   0.001600    8.08  0.000158  (-0.000874 -0.001408  0.012465)
109:   3157.81   0.000607    3.07  0.000060  ( 0.002423  0.003590 -0.006418)
110:   3158.02   0.000637    3.22  0.000063  (-0.000534 -0.002964 -0.007340)
111:   3182.71   0.002738   13.84  0.000269  ( 0.015141  0.005286  0.003363)
112:   3182.94   0.003991   20.17  0.000391  ( 0.006003 -0.018292  0.004541)
113:   3183.19   0.001925    9.73  0.000189  ( 0.012701 -0.003920 -0.003471)
114:   3183.49   0.002239   11.32  0.000219  ( 0.005897  0.012348  0.005678)
115:   3204.09   0.000028    0.14  0.000003  ( 0.000744  0.001484  0.000013)
116:   3204.92   0.000026    0.13  0.000003  ( 0.000581  0.001442  0.000331)
117:   3211.88   0.002666   13.47  0.000259  ( 0.015183 -0.000179  0.005335)
118:   3212.77   0.002702   13.66  0.000262  (-0.016199  0.000147  0.000223)
119:   3228.21   0.003696   18.68  0.000357  ( 0.001609  0.018517 -0.003433)
120:   3228.95   0.003049   15.41  0.000295  ( 0.000303  0.016206  0.005650)
121:   3285.65   0.000906    4.58  0.000086  (-0.000036 -0.009270 -0.000283)
122:   3308.47   0.000083    0.42  0.000008  (-0.000414  0.000207  0.002752)

--------------------------
THERMOCHEMISTRY AT 298.15K
--------------------------

Temperature         ... 298.15 K
Pressure            ... 1.00 atm
Total Mass          ... 276.38 AMU

Throughout the following assumptions are being made:
  (1) The electronic state is orbitally nondegenerate
  (2) There are no thermally accessible electronically excited states
  (3) Hindered rotations indicated by low frequency modes are not
      treated as such but are treated as vibrations and this may
      cause some error
  (4) All equations used are the standard statistical mechanics
      equations for an ideal gas
  (5) All vibrations are strictly harmonic

freq.      15.01  E(vib)   ...       0.57
freq.      20.52  E(vib)   ...       0.56
freq.      55.15  E(vib)   ...       0.52
freq.      63.75  E(vib)   ...       0.51
freq.      91.13  E(vib)   ...       0.47
freq.      93.83  E(vib)   ...       0.47
freq.     124.17  E(vib)   ...       0.43
freq.     138.70  E(vib)   ...       0.42
freq.     147.36  E(vib)   ...       0.41
freq.     156.92  E(vib)   ...       0.40
freq.     171.36  E(vib)   ...       0.38
freq.     202.56  E(vib)   ...       0.35
freq.     210.39  E(vib)   ...       0.34
freq.     238.72  E(vib)   ...       0.32
freq.     239.82  E(vib)   ...       0.31
freq.     286.15  E(vib)   ...       0.27
freq.     308.61  E(vib)   ...       0.26
freq.     336.27  E(vib)   ...       0.24
freq.     358.08  E(vib)   ...       0.22
freq.     362.30  E(vib)   ...       0.22
freq.     398.38  E(vib)   ...       0.20
freq.     437.37  E(vib)   ...       0.17
freq.     485.67  E(vib)   ...       0.15
freq.     494.83  E(vib)   ...       0.14
freq.     535.71  E(vib)   ...       0.12
freq.     536.38  E(vib)   ...       0.12
freq.     544.14  E(vib)   ...       0.12
freq.     548.60  E(vib)   ...       0.12
freq.     578.41  E(vib)   ...       0.11
freq.     596.49  E(vib)   ...       0.10
freq.     602.08  E(vib)   ...       0.10
freq.     629.68  E(vib)   ...       0.09
freq.     681.63  E(vib)   ...       0.08
freq.     686.02  E(vib)   ...       0.07
freq.     754.51  E(vib)   ...       0.06
freq.     770.83  E(vib)   ...       0.05
freq.     782.80  E(vib)   ...       0.05
freq.     788.23  E(vib)   ...       0.05
freq.     796.12  E(vib)   ...       0.05
freq.     800.42  E(vib)   ...       0.05
freq.     805.72  E(vib)   ...       0.05
freq.     881.04  E(vib)   ...       0.04
freq.     932.17  E(vib)   ...       0.03
freq.     938.37  E(vib)   ...       0.03
freq.     945.65  E(vib)   ...       0.03
freq.     945.69  E(vib)   ...       0.03
freq.     966.23  E(vib)   ...       0.03
freq.     974.03  E(vib)   ...       0.03
freq.    1009.57  E(vib)   ...       0.02
freq.    1010.03  E(vib)   ...       0.02
freq.    1026.30  E(vib)   ...       0.02
freq.    1028.34  E(vib)   ...       0.02
freq.    1059.18  E(vib)   ...       0.02
freq.    1060.70  E(vib)   ...       0.02
freq.    1061.98  E(vib)   ...       0.02
freq.    1064.64  E(vib)   ...       0.02
freq.    1064.88  E(vib)   ...       0.02
freq.    1065.14  E(vib)   ...       0.02
freq.    1092.92  E(vib)   ...       0.02
freq.    1097.77  E(vib)   ...       0.02
freq.    1103.65  E(vib)   ...       0.02
freq.    1130.95  E(vib)   ...       0.01
freq.    1143.35  E(vib)   ...       0.01
freq.    1180.03  E(vib)   ...       0.01
freq.    1180.23  E(vib)   ...       0.01
freq.    1267.93  E(vib)   ...       0.01
freq.    1279.40  E(vib)   ...       0.01
freq.    1281.66  E(vib)   ...       0.01
freq.    1300.98  E(vib)   ...       0.01
freq.    1304.39  E(vib)   ...       0.01
freq.    1327.08  E(vib)   ...       0.01
freq.    1335.73  E(vib)   ...       0.01
freq.    1337.89  E(vib)   ...       0.01
freq.    1372.79  E(vib)   ...       0.01
freq.    1401.73  E(vib)   ...       0.00
freq.    1402.90  E(vib)   ...       0.00
freq.    1404.19  E(vib)   ...       0.00
freq.    1409.24  E(vib)   ...       0.00
freq.    1425.36  E(vib)   ...       0.00
freq.    1445.03  E(vib)   ...       0.00
freq.    1454.32  E(vib)   ...       0.00
freq.    1457.04  E(vib)   ...       0.00
freq.    1461.20  E(vib)   ...       0.00
freq.    1461.80  E(vib)   ...       0.00
freq.    1463.08  E(vib)   ...       0.00
freq.    1466.77  E(vib)   ...       0.00
freq.    1470.97  E(vib)   ...       0.00
freq.    1476.78  E(vib)   ...       0.00
freq.    1538.25  E(vib)   ...       0.00
freq.    1538.73  E(vib)   ...       0.00
freq.    1560.79  E(vib)   ...       0.00
freq.    1566.79  E(vib)   ...       0.00
freq.    1655.97  E(vib)   ...       0.00
freq.    1704.91  E(vib)   ...       0.00
freq.    1706.52  E(vib)   ...       0.00
freq.    1709.47  E(vib)   ...       0.00
freq.    1710.02  E(vib)   ...       0.00
freq.    3067.24  E(vib)   ...       0.00
freq.    3067.81  E(vib)   ...       0.00
freq.    3068.70  E(vib)   ...       0.00
freq.    3069.21  E(vib)   ...       0.00
freq.    3156.76  E(vib)   ...       0.00
freq.    3156.85  E(vib)   ...       0.00
freq.    3157.81  E(vib)   ...       0.00
freq.    3158.02  E(vib)   ...       0.00
freq.    3182.71  E(vib)   ...       0.00
freq.    3182.94  E(vib)   ...       0.00
freq.    3183.19  E(vib)   ...       0.00
freq.    3183.49  E(vib)   ...       0.00
freq.    3204.09  E(vib)   ...       0.00
freq.    3204.92  E(vib)   ...       0.00
freq.    3211.88  E(vib)   ...       0.00
freq.    3212.77  E(vib)   ...       0.00
freq.    3228.21  E(vib)   ...       0.00
freq.    3228.95  E(vib)   ...       0.00
freq.    3285.65  E(vib)   ...       0.00
freq.    3308.47  E(vib)   ...       0.00

------------
INNER ENERGY
------------

The inner energy is: U= E(el) + E(ZPE) + E(vib) + E(rot) + E(trans)
    E(el)   - is the total energy from the electronic structure calculation
              = E(kin-el) + E(nuc-el) + E(el-el) + E(nuc-nuc)
    E(ZPE)  - the the zero temperature vibrational energy from the frequency calculation
    E(vib)  - the the finite temperature correction to E(ZPE) due to population
              of excited vibrational states
    E(rot)  - is the rotational thermal energy
    E(trans)- is the translational thermal energy

Summary of contributions to the inner energy U:
Electronic energy                ...   -844.73290670 Eh
Zero point energy                ...      0.34641150 Eh     217.38 kcal/mol
Thermal vibrational correction   ...      0.01649433 Eh      10.35 kcal/mol
Thermal rotational correction    ...      0.00141627 Eh       0.89 kcal/mol
Thermal translational correction ...      0.00141627 Eh       0.89 kcal/mol
-----------------------------------------------------------------------
Total thermal energy                   -844.36716833 Eh

Summary of corrections to the electronic energy:
(perhaps to be used in another calculation)
Total thermal correction                  0.01932687 Eh      12.13 kcal/mol

Rotational constants in cm-1:     0.023796     0.005931     0.005222

                             ****ORCA TERMINATED NORMALLY****
TOTAL RUN TIME: 0 days 0 hours 48 minutes 41 seconds 376 msec
