   * xtb version 6.6.1 (8d0f1dd) compiled by 'conda@1efc2f54142f' on 2023-08-01
          program call               : xtb struc.xyz --gfn2 --ceasefiles --opt

   ID    Z sym.   atoms
    1    6 C      1, 2, 5-7, 11-14, 27, 28
    2    7 N      3, 4
    3    1 H      8-10, 15-26, 29-34

          :  Hamiltonian                  GFN2-xTB          :
 * total energy  :   -39.7524437 Eh     change       -0.3908845E-08 Eh
 * total energy  :   -39.7680914 Eh     change       -0.1564775E-01 Eh
 * total energy  :   -39.7733619 Eh     change       -0.5270479E-02 Eh
 * total energy  :   -39.7756379 Eh     change       -0.2276007E-02 Eh
 * total energy  :   -39.7770947 Eh     change       -0.1456826E-02 Eh
 * total energy  :   -39.7778395 Eh     change       -0.7447589E-03 Eh
 * total energy  :   -39.7780843 Eh     change       -0.2447749E-03 Eh
   *** GEOMETRY OPTIMIZATION CONVERGED AFTER 7 ITERATIONS ***

 final structure:
================
34
 xtb: 6.6.1 (8d0f1dd)
C           -2.23260699061894        0.07899933594138        1.09812666514877
C            2.34895644597333       -0.35852658876626       -0.79798477579544
N           -1.05319393397824        0.24142395795531        0.23229424945232
N            0.93810306216784        0.03482870747326       -0.62766884694303
C           -0.95051304983489        1.14256698054139       -0.78455566182588
C            0.29352820005621        1.01635943006839       -1.31881838975158
C            0.10132537198697       -0.41477790515308        0.30381266358793
H           -1.74793313558016        1.80005290245326       -1.06023804436532
H            0.73480176732458        1.55615767724349       -2.12905205168302
H            0.32944807487448       -1.19865741846265        0.99398811552967
C           -1.99136929703213       -1.06321499887256        2.08145314515511
C            2.70553293486794       -0.29522718648250       -2.28444988315978
C            2.55318963039985       -1.77812853004199       -0.27398877428337
C           -2.43471256565617        1.38986703561770        1.86242115692084
H           -1.14456874664963       -0.85492994872784        2.72922915151586
H            2.68653591864242        0.72369713220025       -2.65535339530358
H            1.86576374555811       -2.47405278708560       -0.75174180424954
H           -1.55994268821703        1.62347170697880        2.46494998600528
H           -2.86301453568782       -1.17840856173092        2.71116890538852
H            2.01727132907769       -0.90009837514595       -2.87029265534378
H            3.56680382701081       -2.09949036372576       -0.50275636224251
H           -3.28841127862714        1.28979568661779        2.52394042419993
H           -1.82956873681151       -2.00230296733813        1.56551760172912
H            3.70932306461867       -0.68130615478084       -2.43499732741987
H            2.43668173192884       -1.83530035446779        0.80717639607141
H           -2.62506039402971        2.22126594321031        1.19056655778563
C           -3.43860633204480       -0.22981399941008        0.20969442210170
C            3.18729107196641        0.63816968362232        0.00861636507513
H           -4.29307642363307       -0.47924769215652        0.83421968868000
H            2.91907060321763        0.60399018830784        1.06249312073057
H           -3.71407622012805        0.62525712547385       -0.40460360807817
H            3.04204552608953        1.65330771448836       -0.35422456589476
H            4.24007953918402        0.38968002639124       -0.08390468400362
H           -3.23311930391647       -1.07730761223612       -0.44120091683463

          :  Hamiltonian                  GFN2-xTB          :
         :: total energy             -39.778084255966 Eh    ::
         :: gradient norm              0.006754604774 Eh/a0 ::
         :: HOMO-LUMO gap              4.859805864092 eV    ::
         :: SCC energy               -40.389355837180 Eh    ::
         :: -> dispersion             -0.027894370906 Eh    ::
         :: repulsion energy           0.610998531473 Eh    ::

    * Orbital Energies and Occupations

         #    Occupation            Energy/Eh            Energy/eV
      -------------------------------------------------------------
         1        2.0000           -0.8781028             -23.8944
       ...           ...                  ...                  ...
        25        2.0000           -0.6009030             -16.3514
        26        2.0000           -0.5995482             -16.3145
        27        2.0000           -0.5986715             -16.2907
        28        2.0000           -0.5979844             -16.2720
        29        2.0000           -0.5930726             -16.1383
        30        2.0000           -0.5911437             -16.0858
        31        2.0000           -0.5901008             -16.0575
        32        2.0000           -0.5896389             -16.0449
        33        2.0000           -0.5811380             -15.8136
        34        2.0000           -0.5782719             -15.7356
        35        2.0000           -0.5780831             -15.7304
        36        2.0000           -0.5733154             -15.6007
        37        2.0000           -0.5710225             -15.5383 (HOMO)
        38                         -0.3924279             -10.6785 (LUMO)
        39                         -0.3568998              -9.7117
        40                         -0.1957848              -5.3276
        41                         -0.1454866              -3.9589
        42                         -0.0744716              -2.0265
        43                         -0.0601660              -1.6372
        44                         -0.0586579              -1.5962
        45                         -0.0537048              -1.4614
        46                         -0.0479373              -1.3044
        47                         -0.0366863              -0.9983
        48                         -0.0321796              -0.8757
       ...                                ...                  ...
        73                          0.4757481              12.9458
      -------------------------------------------------------------
                  HL-Gap            0.1785946 Eh            4.8598 eV

     #   Z          covCN         q      C6AA      α(0)
     1   6 C        3.837     0.075    19.306     6.251
     2   6 C        3.836     0.075    19.308     6.251
     3   7 N        2.870     0.047    20.412     6.710
     4   7 N        2.870     0.046    20.440     6.715
     5   6 C        3.078    -0.005    28.065     8.685
     6   6 C        3.077    -0.006    28.078     8.688
     7   6 C        3.109     0.050    26.742     8.472
     8   1 H        0.927     0.099     1.795     2.095
     9   1 H        0.927     0.101     1.775     2.083
    10   1 H        0.927     0.112     1.683     2.029
    11   6 C        3.761    -0.133    23.114     6.854
    12   6 C        3.759    -0.130    23.046     6.844
    13   6 C        3.759    -0.132    23.084     6.850
    14   6 C        3.760    -0.128    23.007     6.838
    15   1 H        0.925     0.056     2.244     2.342
    16   1 H        0.925     0.062     2.178     2.308
    17   1 H        0.925     0.059     2.212     2.326
    18   1 H        0.925     0.057     2.234     2.337
    19   1 H        0.925     0.082     1.958     2.188
    20   1 H        0.925     0.060     2.194     2.316
    21   1 H        0.925     0.081     1.965     2.192
    22   1 H        0.925     0.080     1.977     2.199
    23   1 H        0.925     0.058     2.218     2.329
    24   1 H        0.925     0.079     1.988     2.205
    25   1 H        0.925     0.056     2.251     2.346
    26   1 H        0.925     0.060     2.193     2.316
    27   6 C        3.759    -0.128    23.010     6.839
    28   6 C        3.760    -0.127    22.980     6.834
    29   1 H        0.925     0.079     1.987     2.204
    30   1 H        0.925     0.054     2.267     2.354
    31   1 H        0.925     0.062     2.180     2.309
    32   1 H        0.925     0.059     2.205     2.322
    33   1 H        0.925     0.081     1.970     2.195
    34   1 H        0.925     0.057     2.229     2.335

molecular dipole:
                 x           y           z       tot (Debye)
 q only:        0.001       0.066      -0.059
   full:        0.002       0.058      -0.051       0.196

           -------------------------------------------------
          | TOTAL ENERGY              -39.778084255966 Eh   |
          | GRADIENT NORM               0.006754604774 Eh/α |
          | HOMO-LUMO GAP               4.859805864092 eV   |
           -------------------------------------------------

 * finished run on 2024/02/12 at 14:13:52.330
