                         Program Version 5.0.4 -  RELEASE  -
|  1> # ORCA 5.0.4 - /users/bwb16179/postgrad/2024_06/pKa_Reviewer_Comments/Gas_Z=0/10_deprot.inp # write input file
|  2> # Basic Mode
|  3> #
|  4> ! Opt Freq wB97X Def2-TZVP D4 SlowConv TightSCF Defgrid2 Def2/J RIJCOSX
|  5>
|  6> %PAL NPROCS 4 END
|  7>
|  8> %maxcore 4500
|  9>
| 10> %geom
| 11> Maxiter 150
| 12> END
| 13>
| 14> * xyzfile 0 1 10_deprot.xyz
| 15>
| 16>                          ****END OF INPUT****
 Total Charge           Charge          ....    0
 Multiplicity           Mult            ....    1
 Number of Electrons    NEL             ....   62
Dispersion correction           -0.002581476
FINAL SINGLE POINT ENERGY      -345.351320358584
Dispersion correction            ... Starting D4
Dispersion correction           -0.002584725
FINAL SINGLE POINT ENERGY      -345.352058610277
Dispersion correction            ... Starting D4
Dispersion correction           -0.002584637
FINAL SINGLE POINT ENERGY      -345.352072173052
Dispersion correction            ... Starting D4
Dispersion correction           -0.002584549
FINAL SINGLE POINT ENERGY      -345.352077078830
Dispersion correction            ... Starting D4
                    ***********************HURRAY********************

CARTESIAN COORDINATES (ANGSTROEM)
---------------------------------
  C     -0.059984    1.067072    1.235062
  C     -0.060216   -1.098139    0.000000
  C     -0.059979    1.067071   -1.235062
  C      0.573705    1.674434    0.000001
  H     -1.086396    1.434612    1.362847
  H      0.497384    1.355717   -2.130366
  H      1.645188    1.459203    0.000003
  N     -0.056176   -0.386399    1.135858
  N     -0.056174   -0.386399   -1.135858
  H     -1.086390    1.434612   -1.362853
  H      0.449867    2.758241    0.000001
  H      0.497374    1.355719    2.130368
  C     -0.131122   -1.089048    2.397290
  H     -0.154515   -2.155662    2.191040
  H      0.734940   -0.857864    3.026532
  H     -1.035812   -0.808907    2.948566
  C     -0.131125   -1.089048   -2.397289
  H      0.734935   -0.857865   -3.026535
  H     -0.154520   -2.155662   -2.191040
  H     -1.035816   -0.808904   -2.948561

 Multiplicity           Mult            ....    1
 Number of Electrons    NEL             ....   62
 Basis Dimension        Dim             ....  320

ORBITAL ENERGIES
----------------

  NO   OCC          E(Eh)            E(eV)
   0   2.0000     -14.405636      -391.9973
   1   2.0000     -14.405617      -391.9968
   2   2.0000     -10.288292      -279.9587
   3   2.0000     -10.288285      -279.9585
   4   2.0000     -10.267660      -279.3972
   5   2.0000     -10.267658      -279.3972
   6   2.0000     -10.263196      -279.2758
   7   2.0000     -10.255871      -279.0764
   8   2.0000      -1.104165       -30.0459
   9   2.0000      -1.036935       -28.2164
  10   2.0000      -0.926557       -25.2129
  11   2.0000      -0.844340       -22.9757
  12   2.0000      -0.833048       -22.6684
  13   2.0000      -0.758081       -20.6284
  14   2.0000      -0.755633       -20.5618
  15   2.0000      -0.643992       -17.5239
  16   2.0000      -0.611139       -16.6299
  17   2.0000      -0.608560       -16.5597
  18   2.0000      -0.585532       -15.9331
  19   2.0000      -0.567747       -15.4492
  20   2.0000      -0.541389       -14.7319
  21   2.0000      -0.532199       -14.4819
  22   2.0000      -0.520271       -14.1573
  23   2.0000      -0.505746       -13.7620
  24   2.0000      -0.480217       -13.0674
  25   2.0000      -0.468372       -12.7450
  26   2.0000      -0.460050       -12.5186
  27   2.0000      -0.443522       -12.0688
  28   2.0000      -0.408076       -11.1043
  29   2.0000      -0.311459        -8.4752
  30   2.0000      -0.288611        -7.8535
  31   0.0000       0.104378         2.8403
  32   0.0000       0.125401         3.4123
  33   0.0000       0.134686         3.6650
  34   0.0000       0.151073         4.1109
  35   0.0000       0.166037         4.5181

MULLIKEN ATOMIC CHARGES
-----------------------
   0 C :   -0.161268
   1 C :   -0.213372
   2 C :   -0.161297
   3 C :   -0.188515
   4 H :    0.110033
   5 H :    0.117264
   6 H :    0.109286
   7 N :   -0.089887
   8 N :   -0.089888
   9 H :    0.110042
  10 H :    0.113979
  11 H :    0.117264
  12 C :   -0.245392
  13 H :    0.145672
  14 H :    0.107191
  15 H :    0.105705
  16 C :   -0.245380
  17 H :    0.107184
  18 H :    0.145674
  19 H :    0.105707
Sum of atomic charges:   -0.0000000

LOEWDIN ATOMIC CHARGES
----------------------
   0 C :   -0.260775
   1 C :   -0.364294
   2 C :   -0.260775
   3 C :   -0.255975
   4 H :    0.130017
   5 H :    0.134041
   6 H :    0.142237
   7 N :    0.120908
   8 N :    0.120908
   9 H :    0.130017
  10 H :    0.139232
  11 H :    0.134041
  12 C :   -0.294362
  13 H :    0.124397
  14 H :    0.107183
  15 H :    0.107991
  16 C :   -0.294362
  17 H :    0.107183
  18 H :    0.124397
  19 H :    0.107991

  Mayer bond orders larger than 0.100000
B(  0-C ,  3-C ) :   0.9826 B(  0-C ,  4-H ) :   0.9672 B(  0-C ,  7-N ) :   0.9186
B(  0-C , 11-H ) :   0.9740 B(  1-C ,  7-N ) :   1.2204 B(  1-C ,  8-N ) :   1.2204
B(  2-C ,  3-C ) :   0.9826 B(  2-C ,  5-H ) :   0.9740 B(  2-C ,  8-N ) :   0.9186
B(  2-C ,  9-H ) :   0.9672 B(  3-C ,  6-H ) :   0.9824 B(  3-C , 10-H ) :   0.9847
B(  7-N , 12-C ) :   0.9242 B(  8-N , 16-C ) :   0.9242 B( 12-C , 13-H ) :   0.9777
B( 12-C , 14-H ) :   0.9747 B( 12-C , 15-H ) :   0.9705 B( 16-C , 17-H ) :   0.9747
B( 16-C , 18-H ) :   0.9777 B( 16-C , 19-H ) :   0.9705

Dispersion correction           -0.002584552
FINAL SINGLE POINT ENERGY      -345.352077167919

DIPOLE MOMENT
-------------
                                X             Y             Z
Electronic contribution:      0.00379      -1.03230      -0.00000
Nuclear contribution   :      0.00429       2.24292      -0.00000
                        -----------------------------------------
Total Dipole Moment    :      0.00808       1.21062      -0.00000
                        -----------------------------------------
Magnitude (a.u.)       :      1.21065
Magnitude (Debye)      :      3.07723

Dispersion correction in the Hessian             ... Starting D4

VIBRATIONAL FREQUENCIES
-----------------------

Scaling factor for frequencies =  1.000000000  (already applied!)

   0:         0.00 cm**-1
   1:         0.00 cm**-1
   2:         0.00 cm**-1
   3:         0.00 cm**-1
   4:         0.00 cm**-1
   5:         0.00 cm**-1
   6:       126.01 cm**-1
   7:       154.48 cm**-1
   8:       202.87 cm**-1
   9:       237.80 cm**-1
  10:       285.00 cm**-1
  11:       294.70 cm**-1
  12:       329.63 cm**-1
  13:       436.73 cm**-1
  14:       462.04 cm**-1
  15:       481.21 cm**-1
  16:       522.47 cm**-1
  17:       623.59 cm**-1
  18:       807.82 cm**-1
  19:       888.14 cm**-1
  20:       922.33 cm**-1
  21:       949.54 cm**-1
  22:      1041.60 cm**-1
  23:      1074.59 cm**-1
  24:      1094.68 cm**-1
  25:      1128.18 cm**-1
  26:      1132.74 cm**-1
  27:      1160.04 cm**-1
  28:      1174.23 cm**-1
  29:      1221.97 cm**-1
  30:      1248.30 cm**-1
  31:      1276.79 cm**-1
  32:      1286.62 cm**-1
  33:      1338.02 cm**-1
  34:      1364.56 cm**-1
  35:      1398.35 cm**-1
  36:      1402.76 cm**-1
  37:      1440.82 cm**-1
  38:      1451.87 cm**-1
  39:      1461.39 cm**-1
  40:      1493.38 cm**-1
  41:      1493.38 cm**-1
  42:      1499.27 cm**-1
  43:      1500.77 cm**-1
  44:      1510.09 cm**-1
  45:      1517.68 cm**-1
  46:      1537.35 cm**-1
  47:      1583.85 cm**-1
  48:      3026.82 cm**-1
  49:      3030.14 cm**-1
  50:      3033.08 cm**-1
  51:      3036.47 cm**-1
  52:      3078.30 cm**-1
  53:      3085.69 cm**-1
  54:      3086.33 cm**-1
  55:      3093.25 cm**-1
  56:      3100.29 cm**-1
  57:      3138.61 cm**-1
  58:      3190.57 cm**-1
  59:      3190.64 cm**-1

IR SPECTRUM
-----------

 Mode   freq       eps      Int      T**2         TX        TY        TZ
       cm**-1   L/(mol*cm) km/mol    a.u.
----------------------------------------------------------------------------
  6:    126.01   0.000038    0.19  0.000094  (-0.000001  0.000000  0.009696)
  7:    154.48   0.001212    6.12  0.002448  (-0.049476 -0.000563  0.000000)
  8:    202.87   0.000073    0.37  0.000113  (-0.000001  0.000000 -0.010625)
  9:    237.80   0.000168    0.85  0.000220  ( 0.014576 -0.002770 -0.000000)
 10:    285.00   0.001112    5.62  0.001218  ( 0.034130 -0.007297 -0.000000)
 11:    294.70   0.000004    0.02  0.000004  (-0.000001  0.000000  0.002012)
 12:    329.63   0.000615    3.11  0.000582  (-0.020564 -0.012625  0.000000)
 13:    436.73   0.000073    0.37  0.000052  (-0.000000  0.000000  0.007208)
 14:    462.04   0.000235    1.19  0.000159  (-0.011142 -0.005889  0.000000)
 15:    481.21   0.003919   19.81  0.002541  ( 0.000000  0.000000  0.050413)
 16:    522.47   0.000452    2.28  0.000270  ( 0.000201  0.016424 -0.000000)
 17:    623.59   0.000107    0.54  0.000053  (-0.003401 -0.006471 -0.000000)
 18:    807.82   0.000518    2.62  0.000200  ( 0.001284  0.014087  0.000000)
 19:    888.14   0.001943    9.82  0.000683  (-0.000000 -0.000000 -0.026129)
 20:    922.33   0.000272    1.37  0.000092  (-0.000000  0.000000 -0.009587)
 21:    949.54   0.000083    0.42  0.000027  ( 0.005136  0.000919 -0.000000)
 22:   1041.60   0.002385   12.05  0.000715  ( 0.004498 -0.026351  0.000000)
 23:   1074.59   0.000252    1.27  0.000073  ( 0.000000 -0.000000  0.008555)
 24:   1094.68   0.000395    2.00  0.000113  ( 0.001717  0.010475 -0.000000)
 25:   1128.18   0.000708    3.58  0.000196  (-0.012193 -0.006866 -0.000001)
 26:   1132.74   0.002602   13.15  0.000717  (-0.000000 -0.000000  0.026776)
 27:   1160.04   0.000065    0.33  0.000018  (-0.000001 -0.000000  0.004191)
 28:   1174.23   0.001204    6.08  0.000320  ( 0.017678  0.002719  0.000000)
 29:   1221.97   0.001477    7.47  0.000377  (-0.000000 -0.000000  0.019424)
 30:   1248.30   0.012987   65.63  0.003247  ( 0.000000 -0.000000 -0.056979)
 31:   1276.79   0.000587    2.97  0.000143  (-0.000000 -0.000001 -0.011977)
 32:   1286.62   0.003305   16.70  0.000802  ( 0.010891  0.026133 -0.000000)
 33:   1338.02   0.000714    3.61  0.000166  ( 0.007123 -0.010756  0.000000)
 34:   1364.56   0.013647   68.97  0.003121  (-0.000000  0.000000  0.055866)
 35:   1398.35   0.003164   15.99  0.000706  (-0.000160 -0.026572  0.000001)
 36:   1402.76   0.002513   12.70  0.000559  (-0.000000  0.000000  0.023643)
 37:   1440.82   0.006449   32.59  0.001397  ( 0.000000  0.000000 -0.037372)
 38:   1451.87   0.000071    0.36  0.000015  ( 0.000628  0.003851  0.000001)
 39:   1461.39   0.001288    6.51  0.000275  (-0.004516  0.015958  0.000000)
 40:   1493.38   0.009147   46.22  0.001911  ( 0.000830  0.000839  0.043703)
 41:   1493.38   0.001918    9.70  0.000401  ( 0.013968  0.014108 -0.002600)
 42:   1499.27   0.003323   16.79  0.000692  (-0.026259 -0.001468 -0.000002)
 43:   1500.77   0.004688   23.69  0.000975  (-0.000001 -0.000000  0.031221)
 44:   1510.09   0.000493    2.49  0.000102  (-0.000000 -0.000001 -0.010091)
 45:   1517.68   0.001526    7.71  0.000314  ( 0.004476 -0.017140  0.000000)
 46:   1537.35   0.001825    9.22  0.000370  (-0.002425  0.019094  0.000000)
 47:   1583.85   0.041632  210.39  0.008203  (-0.000000 -0.000000  0.090568)
 48:   3026.82   0.001766    8.92  0.000182  ( 0.000003 -0.000003 -0.013493)
 49:   3030.14   0.010851   54.84  0.001117  ( 0.021588 -0.025523 -0.000000)
 50:   3033.08   0.036891  186.43  0.003796  ( 0.000001 -0.000001  0.061609)
 51:   3036.47   0.003721   18.81  0.000382  (-0.017879  0.007925  0.000000)
 52:   3078.30   0.000328    1.66  0.000033  (-0.001973 -0.005420 -0.000000)
 53:   3085.69   0.001338    6.76  0.000135  ( 0.000004  0.000000 -0.011631)
 54:   3086.33   0.017787   89.89  0.001798  (-0.042400 -0.000827 -0.000001)
 55:   3093.25   0.006470   32.70  0.000653  (-0.000001 -0.000000  0.025548)
 56:   3100.29   0.007333   37.06  0.000738  ( 0.022715  0.014903  0.000000)
 57:   3138.61   0.005435   27.46  0.000540  ( 0.013208 -0.019129  0.000000)
 58:   3190.57   0.001775    8.97  0.000174  ( 0.000937  0.013144 -0.000017)
 59:   3190.64   0.000106    0.54  0.000010  ( 0.000005  0.000070  0.003218)

--------------------------
THERMOCHEMISTRY AT 298.15K
--------------------------

Temperature         ... 298.15 K
Pressure            ... 1.00 atm
Total Mass          ... 112.18 AMU

Throughout the following assumptions are being made:
  (1) The electronic state is orbitally nondegenerate
  (2) There are no thermally accessible electronically excited states
  (3) Hindered rotations indicated by low frequency modes are not
      treated as such but are treated as vibrations and this may
      cause some error
  (4) All equations used are the standard statistical mechanics
      equations for an ideal gas
  (5) All vibrations are strictly harmonic

freq.     126.01  E(vib)   ...       0.43
freq.     154.48  E(vib)   ...       0.40
freq.     202.87  E(vib)   ...       0.35
freq.     237.80  E(vib)   ...       0.32
freq.     285.00  E(vib)   ...       0.28
freq.     294.70  E(vib)   ...       0.27
freq.     329.63  E(vib)   ...       0.24
freq.     436.73  E(vib)   ...       0.17
freq.     462.04  E(vib)   ...       0.16
freq.     481.21  E(vib)   ...       0.15
freq.     522.47  E(vib)   ...       0.13
freq.     623.59  E(vib)   ...       0.09
freq.     807.82  E(vib)   ...       0.05
freq.     888.14  E(vib)   ...       0.04
freq.     922.33  E(vib)   ...       0.03
freq.     949.54  E(vib)   ...       0.03
freq.    1041.60  E(vib)   ...       0.02
freq.    1074.59  E(vib)   ...       0.02
freq.    1094.68  E(vib)   ...       0.02
freq.    1128.18  E(vib)   ...       0.01
freq.    1132.74  E(vib)   ...       0.01
freq.    1160.04  E(vib)   ...       0.01
freq.    1174.23  E(vib)   ...       0.01
freq.    1221.97  E(vib)   ...       0.01
freq.    1248.30  E(vib)   ...       0.01
freq.    1276.79  E(vib)   ...       0.01
freq.    1286.62  E(vib)   ...       0.01
freq.    1338.02  E(vib)   ...       0.01
freq.    1364.56  E(vib)   ...       0.01
freq.    1398.35  E(vib)   ...       0.00
freq.    1402.76  E(vib)   ...       0.00
freq.    1440.82  E(vib)   ...       0.00
freq.    1451.87  E(vib)   ...       0.00
freq.    1461.39  E(vib)   ...       0.00
freq.    1493.38  E(vib)   ...       0.00
freq.    1493.38  E(vib)   ...       0.00
freq.    1499.27  E(vib)   ...       0.00
freq.    1500.77  E(vib)   ...       0.00
freq.    1510.09  E(vib)   ...       0.00
freq.    1517.68  E(vib)   ...       0.00
freq.    1537.35  E(vib)   ...       0.00
freq.    1583.85  E(vib)   ...       0.00
freq.    3026.82  E(vib)   ...       0.00
freq.    3030.14  E(vib)   ...       0.00
freq.    3033.08  E(vib)   ...       0.00
freq.    3036.47  E(vib)   ...       0.00
freq.    3078.30  E(vib)   ...       0.00
freq.    3085.69  E(vib)   ...       0.00
freq.    3086.33  E(vib)   ...       0.00
freq.    3093.25  E(vib)   ...       0.00
freq.    3100.29  E(vib)   ...       0.00
freq.    3138.61  E(vib)   ...       0.00
freq.    3190.57  E(vib)   ...       0.00
freq.    3190.64  E(vib)   ...       0.00

------------
INNER ENERGY
------------

The inner energy is: U= E(el) + E(ZPE) + E(vib) + E(rot) + E(trans)
    E(el)   - is the total energy from the electronic structure calculation
              = E(kin-el) + E(nuc-el) + E(el-el) + E(nuc-nuc)
    E(ZPE)  - the the zero temperature vibrational energy from the frequency calculation
    E(vib)  - the the finite temperature correction to E(ZPE) due to population
              of excited vibrational states
    E(rot)  - is the rotational thermal energy
    E(trans)- is the translational thermal energy

Summary of contributions to the inner energy U:
Electronic energy                ...   -345.35207717 Eh
Zero point energy                ...      0.18145112 Eh     113.86 kcal/mol
Thermal vibrational correction   ...      0.00529037 Eh       3.32 kcal/mol
Thermal rotational correction    ...      0.00141627 Eh       0.89 kcal/mol
Thermal translational correction ...      0.00141627 Eh       0.89 kcal/mol
-----------------------------------------------------------------------
Total thermal energy                   -345.16250313 Eh

Summary of corrections to the electronic energy:
(perhaps to be used in another calculation)
Total thermal correction                  0.00812291 Eh       5.10 kcal/mol
Non-thermal (ZPE) correction              0.18145112 Eh     113.86 kcal/mol
-----------------------------------------------------------------------
Total correction                          0.18957403 Eh     118.96 kcal/mol

--------
ENTHALPY
--------

The enthalpy is H = U + kB*T
                kB is Boltzmann's constant
Total free energy                 ...   -345.16250313 Eh
Thermal Enthalpy correction       ...      0.00094421 Eh       0.59 kcal/mol
-----------------------------------------------------------------------
Total Enthalpy                    ...   -345.16155893 Eh

Note: Rotational entropy computed according to Herzberg
Infrared and Raman Spectra, Chapter V,1, Van Nostrand Reinhold, 1945
Point Group:  Cs, Symmetry Number:   1
Rotational constants in cm-1:     0.111143     0.060077     0.041127

Vibrational entropy computed according to the QRRHO of S. Grimme
Chem.Eur.J. 2012 18 9955

-------
ENTROPY
-------

The entropy contributions are T*S = T*(S(el)+S(vib)+S(rot)+S(trans))
     S(el)   - electronic entropy
     S(vib)  - vibrational entropy
     S(rot)  - rotational entropy
     S(trans)- translational entropy
The entropies will be listed as multiplied by the temperature to get
units of energy

Electronic entropy                ...      0.00000000 Eh      0.00 kcal/mol
Vibrational entropy               ...      0.00870352 Eh      5.46 kcal/mol
Rotational entropy                ...      0.01338202 Eh      8.40 kcal/mol
Translational entropy             ...      0.01903397 Eh     11.94 kcal/mol
-----------------------------------------------------------------------
Final entropy term                ...      0.04111950 Eh     25.80 kcal/mol

In case the symmetry of your molecule has not been determined correctly
or in case you have a reason to use a different symmetry number we print
out the resulting rotational entropy values for sn=1,12 :
 --------------------------------------------------------
|  sn= 1 | S(rot)=       0.01338202 Eh      8.40 kcal/mol|
|  sn= 2 | S(rot)=       0.01272756 Eh      7.99 kcal/mol|
|  sn= 3 | S(rot)=       0.01234473 Eh      7.75 kcal/mol|
|  sn= 4 | S(rot)=       0.01207311 Eh      7.58 kcal/mol|
|  sn= 5 | S(rot)=       0.01186242 Eh      7.44 kcal/mol|
|  sn= 6 | S(rot)=       0.01169027 Eh      7.34 kcal/mol|
|  sn= 7 | S(rot)=       0.01154473 Eh      7.24 kcal/mol|
|  sn= 8 | S(rot)=       0.01141865 Eh      7.17 kcal/mol|
|  sn= 9 | S(rot)=       0.01130744 Eh      7.10 kcal/mol|
|  sn=10 | S(rot)=       0.01120796 Eh      7.03 kcal/mol|
|  sn=11 | S(rot)=       0.01111797 Eh      6.98 kcal/mol|
|  sn=12 | S(rot)=       0.01103582 Eh      6.93 kcal/mol|
 --------------------------------------------------------

                             ****ORCA TERMINATED NORMALLY****
TOTAL RUN TIME: 0 days 0 hours 21 minutes 43 seconds 580 msec
