                         Program Version 5.0.4 -  RELEASE  -
|  1> # ORCA 5.0.4 - /users/bwb16179/postgrad/2024_06/pKa_Reviewer_Comments/Gas_Z=0/11_deprot.inp # write input file
|  2> # Basic Mode
|  3> #
|  4> ! Opt Freq wB97X Def2-TZVP D4 SlowConv TightSCF Defgrid2 Def2/J RIJCOSX
|  5>
|  6> %PAL NPROCS 4 END
|  7>
|  8> %maxcore 4500
|  9>
| 10> %geom
| 11> Maxiter 150
| 12> END
| 13>
| 14> * xyzfile 0 1 11_deprot.xyz
| 15>
| 16>                          ****END OF INPUT****
 Total Charge           Charge          ....    0
 Multiplicity           Mult            ....    1
 Number of Electrons    NEL             ....   56
Dispersion correction           -0.002178366
FINAL SINGLE POINT ENERGY      -307.215592182562
Dispersion correction            ... Starting D4
Dispersion correction           -0.002181887
FINAL SINGLE POINT ENERGY      -307.216359013321
Dispersion correction            ... Starting D4
Dispersion correction           -0.002180773
FINAL SINGLE POINT ENERGY      -307.216371900868
Dispersion correction            ... Starting D4
FINAL SINGLE POINT ENERGY      -307.216399123067
FINAL SINGLE POINT ENERGY      -307.216406930155
FINAL SINGLE POINT ENERGY      -307.216415056228
Dispersion correction           -0.002182227
FINAL SINGLE POINT ENERGY      -307.216425193015
Dispersion correction            ... Starting D4
Dispersion correction           -0.002182427
FINAL SINGLE POINT ENERGY      -307.216428808381
Dispersion correction            ... Starting D4
                    ***********************HURRAY********************

CARTESIAN COORDINATES (ANGSTROEM)
---------------------------------
  C     -0.000002   -0.000000    0.823643
  N     -0.033404    1.154365    0.138002
  N      0.033401   -1.154365    0.138002
  C      0.372545    1.414102   -1.239171
  C     -0.372547   -1.414102   -1.239171
  H      0.973171    2.326574   -1.254648
  H     -0.973170   -2.326576   -1.254650
  H      0.993252    0.606463   -1.617649
  H     -0.993256   -0.606465   -1.617648
  H     -0.474195    1.564290   -1.915605
  H      0.474194   -1.564287   -1.915605
  C     -0.213615    2.368067    0.914013
  C      0.213617   -2.368066    0.914014
  H     -0.446965    2.089558    1.937409
  H      0.446960   -2.089556    1.937411
  H      0.695277    2.980469    0.900988
  H     -0.695270   -2.980476    0.900984
  H     -1.034083    2.967098    0.506724
  H      1.034092   -2.967091    0.506729

 Multiplicity           Mult            ....    1
 Number of Electrons    NEL             ....   56
 Basis Dimension        Dim             ....  289

ORBITAL ENERGIES
----------------

  NO   OCC          E(Eh)            E(eV)
   0   2.0000     -14.409936      -392.1143
   1   2.0000     -14.409917      -392.1138
   2   2.0000     -10.282892      -279.8117
   3   2.0000     -10.282890      -279.8117
   4   2.0000     -10.267082      -279.3815
   5   2.0000     -10.267080      -279.3814
   6   2.0000     -10.259334      -279.1707
   7   2.0000      -1.094630       -29.7864
   8   2.0000      -1.039384       -28.2831
   9   2.0000      -0.855448       -23.2779
  10   2.0000      -0.841459       -22.8973
  11   2.0000      -0.835051       -22.7229
  12   2.0000      -0.760037       -20.6817
  13   2.0000      -0.662314       -18.0225
  14   2.0000      -0.611702       -16.6453
  15   2.0000      -0.590117       -16.0579
  16   2.0000      -0.586416       -15.9572
  17   2.0000      -0.567751       -15.4493
  18   2.0000      -0.541112       -14.7244
  19   2.0000      -0.529011       -14.3951
  20   2.0000      -0.511224       -13.9111
  21   2.0000      -0.500614       -13.6224
  22   2.0000      -0.481557       -13.1038
  23   2.0000      -0.479266       -13.0415
  24   2.0000      -0.462400       -12.5825
  25   2.0000      -0.410421       -11.1681
  26   2.0000      -0.328603        -8.9417
  27   2.0000      -0.276305        -7.5186
  28   0.0000       0.110268         3.0006
  29   0.0000       0.119050         3.2395
  30   0.0000       0.137632         3.7452
  31   0.0000       0.159451         4.3389
  32   0.0000       0.169594         4.6149

MULLIKEN ATOMIC CHARGES
-----------------------
   0 C :   -0.203970
   1 N :   -0.096442
   2 N :   -0.096445
   3 C :   -0.316555
   4 C :   -0.316557
   5 H :    0.124652
   6 H :    0.124656
   7 H :    0.136544
   8 H :    0.136544
   9 H :    0.133311
  10 H :    0.133311
  11 C :   -0.239174
  12 C :   -0.239181
  13 H :    0.144747
  14 H :    0.144746
  15 H :    0.104006
  16 H :    0.104007
  17 H :    0.110900
  18 H :    0.110900
Sum of atomic charges:   -0.0000000

LOEWDIN ATOMIC CHARGES
----------------------
   0 C :   -0.369436
   1 N :    0.097683
   2 N :    0.097683
   3 C :   -0.301773
   4 C :   -0.301773
   5 H :    0.117491
   6 H :    0.117491
   7 H :    0.120680
   8 H :    0.120680
   9 H :    0.109691
  10 H :    0.109691
  11 C :   -0.296383
  12 C :   -0.296383
  13 H :    0.122865
  14 H :    0.122865
  15 H :    0.106098
  16 H :    0.106098
  17 H :    0.108367
  18 H :    0.108367

  Mayer bond orders larger than 0.100000
B(  0-C ,  1-N ) :   1.2085 B(  0-C ,  2-N ) :   1.2085 B(  1-N ,  3-C ) :   0.8914
B(  1-N , 11-C ) :   0.9278 B(  2-N ,  4-C ) :   0.8914 B(  2-N , 12-C ) :   0.9278
B(  3-C ,  5-H ) :   0.9752 B(  3-C ,  7-H ) :   0.9725 B(  3-C ,  9-H ) :   0.9758
B(  4-C ,  6-H ) :   0.9752 B(  4-C ,  8-H ) :   0.9725 B(  4-C , 10-H ) :   0.9758
B( 11-C , 13-H ) :   0.9793 B( 11-C , 15-H ) :   0.9766 B( 11-C , 17-H ) :   0.9709
B( 12-C , 14-H ) :   0.9793 B( 12-C , 16-H ) :   0.9766 B( 12-C , 18-H ) :   0.9709

Dispersion correction           -0.002182512
FINAL SINGLE POINT ENERGY      -307.216429441616

DIPOLE MOMENT
-------------
                                X             Y             Z
Electronic contribution:     -0.00001      -0.00000       1.97541
Nuclear contribution   :      0.00001       0.00000      -3.04757
                        -----------------------------------------
Total Dipole Moment    :      0.00000       0.00000      -1.07216
                        -----------------------------------------
Magnitude (a.u.)       :      1.07216
Magnitude (Debye)      :      2.72522

Dispersion correction in the Hessian             ... Starting D4

VIBRATIONAL FREQUENCIES
-----------------------

Scaling factor for frequencies =  1.000000000  (already applied!)

   0:         0.00 cm**-1
   1:         0.00 cm**-1
   2:         0.00 cm**-1
   3:         0.00 cm**-1
   4:         0.00 cm**-1
   5:         0.00 cm**-1
   6:        73.96 cm**-1
   7:       158.07 cm**-1
   8:       186.09 cm**-1
   9:       205.15 cm**-1
  10:       218.91 cm**-1
  11:       257.90 cm**-1
  12:       281.77 cm**-1
  13:       324.95 cm**-1
  14:       355.13 cm**-1
  15:       429.14 cm**-1
  16:       431.60 cm**-1
  17:       498.13 cm**-1
  18:       620.64 cm**-1
  19:       885.26 cm**-1
  20:       910.94 cm**-1
  21:      1072.78 cm**-1
  22:      1075.74 cm**-1
  23:      1096.56 cm**-1
  24:      1122.09 cm**-1
  25:      1125.05 cm**-1
  26:      1170.21 cm**-1
  27:      1174.25 cm**-1
  28:      1179.91 cm**-1
  29:      1256.71 cm**-1
  30:      1319.40 cm**-1
  31:      1407.89 cm**-1
  32:      1428.45 cm**-1
  33:      1438.51 cm**-1
  34:      1443.93 cm**-1
  35:      1470.79 cm**-1
  36:      1483.44 cm**-1
  37:      1499.08 cm**-1
  38:      1500.08 cm**-1
  39:      1504.45 cm**-1
  40:      1504.95 cm**-1
  41:      1519.00 cm**-1
  42:      1520.08 cm**-1
  43:      1538.89 cm**-1
  44:      1576.87 cm**-1
  45:      3033.20 cm**-1
  46:      3034.77 cm**-1
  47:      3050.65 cm**-1
  48:      3055.29 cm**-1
  49:      3091.31 cm**-1
  50:      3091.58 cm**-1
  51:      3111.53 cm**-1
  52:      3114.23 cm**-1
  53:      3186.82 cm**-1
  54:      3191.06 cm**-1
  55:      3196.71 cm**-1
  56:      3196.75 cm**-1

IR SPECTRUM
-----------

 Mode   freq       eps      Int      T**2         TX        TY        TZ
       cm**-1   L/(mol*cm) km/mol    a.u.
----------------------------------------------------------------------------
  6:     73.96   0.000008    0.04  0.000035  (-0.000000  0.000000  0.005937)
  7:    158.07   0.001014    5.12  0.002002  ( 0.044742 -0.000009  0.000000)
  8:    186.09   0.000004    0.02  0.000007  ( 0.000000  0.000001 -0.002730)
  9:    205.15   0.000028    0.14  0.000043  ( 0.000001  0.000000 -0.006533)
 10:    218.91   0.000618    3.12  0.000881  (-0.028600 -0.007944  0.000000)
 11:    257.90   0.000994    5.03  0.001203  ( 0.029872 -0.017631 -0.000000)
 12:    281.77   0.000481    2.43  0.000532  (-0.000001  0.000000 -0.023075)
 13:    324.95   0.000008    0.04  0.000008  ( 0.000000  0.000000  0.002799)
 14:    355.13   0.003074   15.54  0.002702  (-0.017615  0.048900  0.000000)
 15:    429.14   0.002211   11.17  0.001607  ( 0.022685  0.033058 -0.000000)
 16:    431.60   0.000026    0.13  0.000019  (-0.000002 -0.000002 -0.004346)
 17:    498.13   0.000542    2.74  0.000339  ( 0.006884 -0.017085  0.000000)
 18:    620.64   0.000488    2.46  0.000245  (-0.000000  0.000000 -0.015658)
 19:    885.26   0.001597    8.07  0.000563  (-0.000000 -0.000000  0.023728)
 20:    910.94   0.005677   28.69  0.001945  ( 0.004744  0.043842  0.000000)
 21:   1072.78   0.000859    4.34  0.000250  (-0.000000  0.000000 -0.015803)
 22:   1075.74   0.001350    6.82  0.000392  (-0.002577  0.019622  0.000000)
 23:   1096.56   0.000232    1.17  0.000066  (-0.000000  0.000000 -0.008124)
 24:   1122.09   0.000329    1.66  0.000092  (-0.008998  0.003258 -0.000000)
 25:   1125.05   0.000404    2.04  0.000112  ( 0.000000  0.000000 -0.010581)
 26:   1170.21   0.008615   43.53  0.002297  (-0.011259 -0.046589  0.000000)
 27:   1174.25   0.000059    0.30  0.000016  ( 0.000001 -0.000005 -0.003961)
 28:   1179.91   0.011955   60.42  0.003162  ( 0.012645 -0.054790  0.000000)
 29:   1256.71   0.000200    1.01  0.000050  (-0.001432  0.006906 -0.000000)
 30:   1319.40   0.004009   20.26  0.000948  (-0.000000  0.000000 -0.030793)
 31:   1407.89   0.000027    0.14  0.000006  ( 0.000000 -0.000000  0.002462)
 32:   1428.45   0.032276  163.11  0.007051  ( 0.000865 -0.083967 -0.000000)
 33:   1438.51   0.000645    3.26  0.000140  ( 0.009089  0.007563  0.000000)
 34:   1443.93   0.000241    1.22  0.000052  (-0.000000  0.000000  0.007215)
 35:   1470.79   0.000259    1.31  0.000055  (-0.000000 -0.000000  0.007409)
 36:   1483.44   0.001035    5.23  0.000218  (-0.007387  0.012770 -0.000000)
 37:   1499.08   0.008904   45.00  0.001854  (-0.014676  0.040474  0.000001)
 38:   1500.08   0.000007    0.03  0.000001  (-0.000000 -0.000001  0.001199)
 39:   1504.45   0.005080   25.67  0.001054  ( 0.027896  0.016597  0.000003)
 40:   1504.95   0.002105   10.64  0.000437  ( 0.000003  0.000004 -0.020894)
 41:   1519.00   0.001141    5.77  0.000234  ( 0.000003  0.000003 -0.015312)
 42:   1520.08   0.003158   15.96  0.000648  (-0.022550 -0.011826 -0.000002)
 43:   1538.89   0.000763    3.86  0.000155  ( 0.000000  0.000000 -0.012443)
 44:   1576.87   0.050627  255.85  0.010019  ( 0.007171  0.099838  0.000000)
 45:   3033.20   0.030089  152.06  0.003096  (-0.006692 -0.055234 -0.000001)
 46:   3034.77   0.002245   11.35  0.000231  ( 0.000000  0.000005 -0.015195)
 47:   3050.65   0.007979   40.32  0.000816  ( 0.000539 -0.028564 -0.000001)
 48:   3055.29   0.013046   65.93  0.001333  (-0.000000 -0.000001  0.036504)
 49:   3091.31   0.000611    3.09  0.000062  (-0.000004  0.000001 -0.007852)
 50:   3091.58   0.016626   84.02  0.001678  (-0.040781  0.003890  0.000001)
 51:   3111.53   0.000422    2.13  0.000042  (-0.000001 -0.000001  0.006505)
 52:   3114.23   0.009476   47.89  0.000950  ( 0.023642  0.019763  0.000000)
 53:   3186.82   0.005067   25.61  0.000496  ( 0.014054 -0.017282  0.000001)
 54:   3191.06   0.000426    2.15  0.000042  ( 0.000001 -0.000001 -0.006457)
 55:   3196.71   0.001461    7.38  0.000143  (-0.000003 -0.000004  0.011942)
 56:   3196.75   0.000428    2.16  0.000042  (-0.003761 -0.005254 -0.000008)

--------------------------
THERMOCHEMISTRY AT 298.15K
--------------------------

Temperature         ... 298.15 K
Pressure            ... 1.00 atm
Total Mass          ... 100.16 AMU

Throughout the following assumptions are being made:
  (1) The electronic state is orbitally nondegenerate
  (2) There are no thermally accessible electronically excited states
  (3) Hindered rotations indicated by low frequency modes are not
      treated as such but are treated as vibrations and this may
      cause some error
  (4) All equations used are the standard statistical mechanics
      equations for an ideal gas
  (5) All vibrations are strictly harmonic

freq.      73.96  E(vib)   ...       0.49
freq.     158.07  E(vib)   ...       0.39
freq.     186.09  E(vib)   ...       0.37
freq.     205.15  E(vib)   ...       0.35
freq.     218.91  E(vib)   ...       0.33
freq.     257.90  E(vib)   ...       0.30
freq.     281.77  E(vib)   ...       0.28
freq.     324.95  E(vib)   ...       0.24
freq.     355.13  E(vib)   ...       0.22
freq.     429.14  E(vib)   ...       0.18
freq.     431.60  E(vib)   ...       0.18
freq.     498.13  E(vib)   ...       0.14
freq.     620.64  E(vib)   ...       0.09
freq.     885.26  E(vib)   ...       0.04
freq.     910.94  E(vib)   ...       0.03
freq.    1072.78  E(vib)   ...       0.02
freq.    1075.74  E(vib)   ...       0.02
freq.    1096.56  E(vib)   ...       0.02
freq.    1122.09  E(vib)   ...       0.01
freq.    1125.05  E(vib)   ...       0.01
freq.    1170.21  E(vib)   ...       0.01
freq.    1174.25  E(vib)   ...       0.01
freq.    1179.91  E(vib)   ...       0.01
freq.    1256.71  E(vib)   ...       0.01
freq.    1319.40  E(vib)   ...       0.01
freq.    1407.89  E(vib)   ...       0.00
freq.    1428.45  E(vib)   ...       0.00
freq.    1438.51  E(vib)   ...       0.00
freq.    1443.93  E(vib)   ...       0.00
freq.    1470.79  E(vib)   ...       0.00
freq.    1483.44  E(vib)   ...       0.00
freq.    1499.08  E(vib)   ...       0.00
freq.    1500.08  E(vib)   ...       0.00
freq.    1504.45  E(vib)   ...       0.00
freq.    1504.95  E(vib)   ...       0.00
freq.    1519.00  E(vib)   ...       0.00
freq.    1520.08  E(vib)   ...       0.00
freq.    1538.89  E(vib)   ...       0.00
freq.    1576.87  E(vib)   ...       0.00
freq.    3033.20  E(vib)   ...       0.00
freq.    3034.77  E(vib)   ...       0.00
freq.    3050.65  E(vib)   ...       0.00
freq.    3055.29  E(vib)   ...       0.00
freq.    3091.31  E(vib)   ...       0.00
freq.    3091.58  E(vib)   ...       0.00
freq.    3111.53  E(vib)   ...       0.00
freq.    3114.23  E(vib)   ...       0.00
freq.    3186.82  E(vib)   ...       0.00
freq.    3191.06  E(vib)   ...       0.00
freq.    3196.71  E(vib)   ...       0.00
freq.    3196.75  E(vib)   ...       0.00

------------
INNER ENERGY
------------

The inner energy is: U= E(el) + E(ZPE) + E(vib) + E(rot) + E(trans)
    E(el)   - is the total energy from the electronic structure calculation
              = E(kin-el) + E(nuc-el) + E(el-el) + E(nuc-nuc)
    E(ZPE)  - the the zero temperature vibrational energy from the frequency calculation
    E(vib)  - the the finite temperature correction to E(ZPE) due to population
              of excited vibrational states
    E(rot)  - is the rotational thermal energy
    E(trans)- is the translational thermal energy

Summary of contributions to the inner energy U:
Electronic energy                ...   -307.21642944 Eh
Zero point energy                ...      0.17227652 Eh     108.10 kcal/mol
Thermal vibrational correction   ...      0.00607104 Eh       3.81 kcal/mol
Thermal rotational correction    ...      0.00141627 Eh       0.89 kcal/mol
Thermal translational correction ...      0.00141627 Eh       0.89 kcal/mol
-----------------------------------------------------------------------
Total thermal energy                   -307.03524934 Eh

Summary of corrections to the electronic energy:
(perhaps to be used in another calculation)
Total thermal correction                  0.00890359 Eh       5.59 kcal/mol
Non-thermal (ZPE) correction              0.17227652 Eh     108.10 kcal/mol
-----------------------------------------------------------------------
Total correction                          0.18118010 Eh     113.69 kcal/mol

--------
ENTHALPY
--------

The enthalpy is H = U + kB*T
                kB is Boltzmann's constant
Total free energy                 ...   -307.03524934 Eh
Thermal Enthalpy correction       ...      0.00094421 Eh       0.59 kcal/mol
-----------------------------------------------------------------------
Total Enthalpy                    ...   -307.03430513 Eh

Note: Rotational entropy computed according to Herzberg
Infrared and Raman Spectra, Chapter V,1, Van Nostrand Reinhold, 1945
Point Group:  C2, Symmetry Number:   2
Rotational constants in cm-1:     0.162941     0.057443     0.045288

Vibrational entropy computed according to the QRRHO of S. Grimme
Chem.Eur.J. 2012 18 9955

-------
ENTROPY
-------

The entropy contributions are T*S = T*(S(el)+S(vib)+S(rot)+S(trans))
     S(el)   - electronic entropy
     S(vib)  - vibrational entropy
     S(rot)  - rotational entropy
     S(trans)- translational entropy
The entropies will be listed as multiplied by the temperature to get
units of energy

Electronic entropy                ...      0.00000000 Eh      0.00 kcal/mol
Vibrational entropy               ...      0.01028467 Eh      6.45 kcal/mol
Rotational entropy                ...      0.01252263 Eh      7.86 kcal/mol
Translational entropy             ...      0.01887358 Eh     11.84 kcal/mol
-----------------------------------------------------------------------
Final entropy term                ...      0.04168088 Eh     26.16 kcal/mol

In case the symmetry of your molecule has not been determined correctly
or in case you have a reason to use a different symmetry number we print
out the resulting rotational entropy values for sn=1,12 :
 --------------------------------------------------------
|  sn= 1 | S(rot)=       0.01317709 Eh      8.27 kcal/mol|
|  sn= 2 | S(rot)=       0.01252263 Eh      7.86 kcal/mol|
|  sn= 3 | S(rot)=       0.01213980 Eh      7.62 kcal/mol|
|  sn= 4 | S(rot)=       0.01186818 Eh      7.45 kcal/mol|
|  sn= 5 | S(rot)=       0.01165749 Eh      7.32 kcal/mol|
|  sn= 6 | S(rot)=       0.01148535 Eh      7.21 kcal/mol|
|  sn= 7 | S(rot)=       0.01133980 Eh      7.12 kcal/mol|
|  sn= 8 | S(rot)=       0.01121372 Eh      7.04 kcal/mol|
|  sn= 9 | S(rot)=       0.01110251 Eh      6.97 kcal/mol|
|  sn=10 | S(rot)=       0.01100303 Eh      6.90 kcal/mol|
|  sn=11 | S(rot)=       0.01091304 Eh      6.85 kcal/mol|
|  sn=12 | S(rot)=       0.01083089 Eh      6.80 kcal/mol|
 --------------------------------------------------------

-------------------
GIBBS FREE ENERGY

                             ****ORCA TERMINATED NORMALLY****
TOTAL RUN TIME: 0 days 0 hours 21 minutes 10 seconds 345 msec
