                         Program Version 5.0.4 -  RELEASE  -
|  1> # ORCA 5.0.4 - /users/bwb16179/postgrad/2024_06/pKa_Reviewer_Comments/Gas_Z=0/1_deprot.inp # write input file
|  2> # Basic Mode
|  3> #
|  4> ! Opt Freq wB97X Def2-TZVP D4 SlowConv TightSCF Defgrid2 Def2/J RIJCOSX
|  5>
|  6> %PAL NPROCS 4 END
|  7>
|  8> %maxcore 4500
|  9>
| 10> %geom
| 11> Maxiter 150
| 12> END
| 13>
| 14> * xyzfile 0 1 1_deprot.xyz
| 15>
| 16>                          ****END OF INPUT****
 Total Charge           Charge          ....    0
 Multiplicity           Mult            ....    1
 Number of Electrons    NEL             ....   52
Dispersion correction           -0.001729813
FINAL SINGLE POINT ENERGY      -304.828155345446
Dispersion correction            ... Starting D4
Dispersion correction           -0.001731986
FINAL SINGLE POINT ENERGY      -304.828800041037
Dispersion correction            ... Starting D4
Dispersion correction           -0.001731947
FINAL SINGLE POINT ENERGY      -304.828808291300
Dispersion correction            ... Starting D4
                    ***********************HURRAY********************

CARTESIAN COORDINATES (ANGSTROEM)
---------------------------------
  C      0.392346    0.622407   -1.166468
  C      0.261131   -0.716920   -1.157493
  N      0.052500    1.048910    0.102995
  N     -0.152160   -1.052878    0.117247
  C     -0.290834    0.026958    0.926007
  H      0.693273    1.295854   -1.952105
  H      0.424855   -1.446550   -1.933567
  C      0.061974    2.432138    0.522200
  C     -0.412099   -2.406672    0.551474
  H     -0.606287    3.029664   -0.100500
  H     -1.233275   -2.846915   -0.017100
  H      0.477323   -3.027864    0.431583
  H      1.069109    2.849163    0.464810
  H     -0.281633    2.465969    1.552770
  H     -0.684934   -2.368934    1.602906

 Multiplicity           Mult            ....    1
 Number of Electrons    NEL             ....   52
 Basis Dimension        Dim             ....  265

ORBITAL ENERGIES
----------------

  NO   OCC          E(Eh)            E(eV)
   0   2.0000     -14.434925      -392.7943
   1   2.0000     -14.434892      -392.7934
   2   2.0000     -10.284766      -279.8627
   3   2.0000     -10.284717      -279.8614
   4   2.0000     -10.280476      -279.7460
   5   2.0000     -10.279701      -279.7249
   6   2.0000     -10.255753      -279.0732
   7   2.0000      -1.155293       -31.4371
   8   2.0000      -1.043581       -28.3973
   9   2.0000      -0.904292       -24.6070
  10   2.0000      -0.853330       -23.2203
  11   2.0000      -0.809258       -22.0210
  12   2.0000      -0.716353       -19.4929
  13   2.0000      -0.685350       -18.6493
  14   2.0000      -0.638997       -17.3880
  15   2.0000      -0.591361       -16.0918
  16   2.0000      -0.565550       -15.3894
  17   2.0000      -0.555617       -15.1191
  18   2.0000      -0.544416       -14.8143
  19   2.0000      -0.536510       -14.5992
  20   2.0000      -0.496062       -13.4985
  21   2.0000      -0.487895       -13.2763
  22   2.0000      -0.485940       -13.2231
  23   2.0000      -0.370560       -10.0835
  24   2.0000      -0.324935        -8.8419
  25   2.0000      -0.314367        -8.5544
  26   0.0000       0.106797         2.9061
  27   0.0000       0.128498         3.4966
  28   0.0000       0.132123         3.5953
  29   0.0000       0.134716         3.6658
  30   0.0000       0.162244         4.4149

MULLIKEN ATOMIC CHARGES
-----------------------
   0 C :   -0.123564
   1 C :   -0.123018
   2 N :   -0.054188
   3 N :   -0.054081
   4 C :   -0.225981
   5 H :    0.160218
   6 H :    0.160372
   7 C :   -0.277866
   8 C :   -0.277835
   9 H :    0.125939
  10 H :    0.126923
  11 H :    0.125979
  12 H :    0.126884
  13 H :    0.155132
  14 H :    0.155086
Sum of atomic charges:   -0.0000000

LOEWDIN ATOMIC CHARGES
----------------------
   0 C :   -0.224954
   1 C :   -0.225025
   2 N :    0.177068
   3 N :    0.177010
   4 C :   -0.350517
   5 H :    0.137532
   6 H :    0.137578
   7 C :   -0.273688
   8 C :   -0.273662
   9 H :    0.115035
  10 H :    0.115003
  11 H :    0.115088
  12 H :    0.114975
  13 H :    0.129280
  14 H :    0.129277

  Mayer bond orders larger than 0.100000
B(  0-C ,  1-C ) :   1.7703 B(  0-C ,  2-N ) :   1.1102 B(  0-C ,  5-H ) :   0.9466
B(  1-C ,  3-N ) :   1.1102 B(  1-C ,  6-H ) :   0.9464 B(  2-N ,  4-C ) :   1.1846
B(  2-N ,  7-C ) :   0.8953 B(  3-N ,  4-C ) :   1.1843 B(  3-N ,  8-C ) :   0.8951
B(  7-C ,  9-H ) :   0.9728 B(  7-C , 12-H ) :   0.9724 B(  7-C , 13-H ) :   0.9760
B(  8-C , 10-H ) :   0.9725 B(  8-C , 11-H ) :   0.9729 B(  8-C , 14-H ) :   0.9760

Dispersion correction           -0.001731922
FINAL SINGLE POINT ENERGY      -304.828810088233

DIPOLE MOMENT
-------------
                                X             Y             Z
Electronic contribution:      0.31289      -0.03623      -1.07554
Nuclear contribution   :     -0.02482       0.00122       0.10648
                        -----------------------------------------
Total Dipole Moment    :      0.28807      -0.03502      -0.96907
                        -----------------------------------------
Magnitude (a.u.)       :      1.01158
Magnitude (Debye)      :      2.57124

Dispersion correction in the Hessian             ... Starting D4

VIBRATIONAL FREQUENCIES
-----------------------

Scaling factor for frequencies =  1.000000000  (already applied!)

   0:         0.00 cm**-1
   1:         0.00 cm**-1
   2:         0.00 cm**-1
   3:         0.00 cm**-1
   4:         0.00 cm**-1
   5:         0.00 cm**-1
   6:        83.50 cm**-1
   7:        99.96 cm**-1
   8:       193.51 cm**-1
   9:       271.20 cm**-1
  10:       296.02 cm**-1
  11:       443.91 cm**-1
  12:       627.69 cm**-1
  13:       632.13 cm**-1
  14:       638.90 cm**-1
  15:       741.94 cm**-1
  16:       765.57 cm**-1
  17:       855.05 cm**-1
  18:      1026.11 cm**-1
  19:      1034.81 cm**-1
  20:      1089.21 cm**-1
  21:      1092.74 cm**-1
  22:      1112.61 cm**-1
  23:      1160.25 cm**-1
  24:      1162.95 cm**-1
  25:      1251.36 cm**-1
  26:      1360.68 cm**-1
  27:      1396.94 cm**-1
  28:      1429.53 cm**-1
  29:      1448.40 cm**-1
  30:      1458.64 cm**-1
  31:      1497.88 cm**-1
  32:      1499.28 cm**-1
  33:      1501.28 cm**-1
  34:      1514.78 cm**-1
  35:      1516.52 cm**-1
  36:      1649.07 cm**-1
  37:      3072.03 cm**-1
  38:      3072.77 cm**-1
  39:      3138.34 cm**-1
  40:      3139.00 cm**-1
  41:      3194.75 cm**-1
  42:      3195.42 cm**-1
  43:      3279.84 cm**-1
  44:      3302.23 cm**-1

IR SPECTRUM
-----------

 Mode   freq       eps      Int      T**2         TX        TY        TZ
       cm**-1   L/(mol*cm) km/mol    a.u.
----------------------------------------------------------------------------
  6:     83.50   0.000057    0.29  0.000212  ( 0.013961 -0.000115  0.004132)
  7:     99.96   0.000018    0.09  0.000057  (-0.006401 -0.001066 -0.003885)
  8:    193.51   0.003484   17.61  0.005619  (-0.071328  0.007912 -0.021644)
  9:    271.20   0.000007    0.04  0.000008  ( 0.001294 -0.000422  0.002536)
 10:    296.02   0.000740    3.74  0.000780  (-0.008310  0.001348  0.026634)
 11:    443.91   0.001737    8.78  0.001221  (-0.004206 -0.034692  0.000105)
 12:    627.69   0.000001    0.00  0.000000  ( 0.000556 -0.000048  0.000098)
 13:    632.13   0.000445    2.25  0.000220  (-0.004828  0.000715  0.013992)
 14:    638.90   0.000034    0.17  0.000017  (-0.002898  0.000303 -0.002876)
 15:    741.94   0.012060   60.95  0.005073  ( 0.067817 -0.006485  0.020770)
 16:    765.57   0.004778   24.15  0.001948  (-0.005002 -0.043847  0.000153)
 17:    855.05   0.000062    0.32  0.000023  ( 0.004616 -0.000447  0.001132)
 18:   1026.11   0.000347    1.76  0.000106  (-0.000493 -0.010267 -0.000088)
 19:   1034.81   0.000092    0.47  0.000028  ( 0.001426 -0.000583 -0.005038)
 20:   1089.21   0.000069    0.35  0.000020  ( 0.000307 -0.003785 -0.002340)
 21:   1092.74   0.000374    1.89  0.000107  ( 0.003102  0.000319 -0.009854)
 22:   1112.61   0.001578    7.97  0.000443  ( 0.006116 -0.001138 -0.020096)
 23:   1160.25   0.000030    0.15  0.000008  ( 0.002322 -0.001402  0.000857)
 24:   1162.95   0.000047    0.24  0.000013  ( 0.002863 -0.001910  0.000940)
 25:   1251.36   0.008818   44.56  0.002199  (-0.004457 -0.046675  0.000733)
 26:   1360.68   0.000410    2.07  0.000094  ( 0.000973  0.009646 -0.000114)
 27:   1396.94   0.000837    4.23  0.000187  ( 0.004135 -0.000344 -0.013029)
 28:   1429.53   0.000106    0.54  0.000023  ( 0.001303 -0.000824 -0.004557)
 29:   1448.40   0.003890   19.66  0.000838  ( 0.004480  0.028575  0.001204)
 30:   1458.64   0.000589    2.98  0.000126  (-0.003876 -0.003002  0.010098)
 31:   1497.88   0.002994   15.13  0.000624  ( 0.013269 -0.020054  0.006745)
 32:   1499.28   0.004857   24.55  0.001011  (-0.007422  0.030815 -0.002503)
 33:   1501.28   0.005994   30.29  0.001246  ( 0.019940  0.028202  0.007278)
 34:   1514.78   0.004460   22.54  0.000919  (-0.009962 -0.001398  0.028594)
 35:   1516.52   0.001040    5.26  0.000214  (-0.005458  0.003322  0.013159)
 36:   1649.07   0.000122    0.61  0.000023  ( 0.001233 -0.000169 -0.004633)
 37:   3072.03   0.021475  108.52  0.002181  (-0.005096 -0.046426  0.000305)
 38:   3072.77   0.000142    0.72  0.000014  ( 0.000123  0.003681  0.000922)
 39:   3138.34   0.003466   17.52  0.000345  (-0.017504  0.001917 -0.005881)
 40:   3139.00   0.004942   24.98  0.000491  (-0.021314  0.002088 -0.005717)
 41:   3194.75   0.000659    3.33  0.000064  (-0.002086  0.001670  0.007565)
 42:   3195.42   0.000386    1.95  0.000038  (-0.002149 -0.001658  0.005511)
 43:   3279.84   0.000142    0.72  0.000014  (-0.000392 -0.003645  0.000249)
 44:   3302.23   0.000163    0.82  0.000015  ( 0.001046 -0.000379 -0.003759)

--------------------------
THERMOCHEMISTRY AT 298.15K
--------------------------

Temperature         ... 298.15 K
Pressure            ... 1.00 atm
Total Mass          ... 96.13 AMU

Throughout the following assumptions are being made:
  (1) The electronic state is orbitally nondegenerate
  (2) There are no thermally accessible electronically excited states
  (3) Hindered rotations indicated by low frequency modes are not
      treated as such but are treated as vibrations and this may
      cause some error
  (4) All equations used are the standard statistical mechanics
      equations for an ideal gas
  (5) All vibrations are strictly harmonic

freq.      83.50  E(vib)   ...       0.48
freq.      99.96  E(vib)   ...       0.46
freq.     193.51  E(vib)   ...       0.36
freq.     271.20  E(vib)   ...       0.29
freq.     296.02  E(vib)   ...       0.27
freq.     443.91  E(vib)   ...       0.17
freq.     627.69  E(vib)   ...       0.09
freq.     632.13  E(vib)   ...       0.09
freq.     638.90  E(vib)   ...       0.09
freq.     741.94  E(vib)   ...       0.06
freq.     765.57  E(vib)   ...       0.06
freq.     855.05  E(vib)   ...       0.04
freq.    1026.11  E(vib)   ...       0.02
freq.    1034.81  E(vib)   ...       0.02
freq.    1089.21  E(vib)   ...       0.02
freq.    1092.74  E(vib)   ...       0.02
freq.    1112.61  E(vib)   ...       0.01
freq.    1160.25  E(vib)   ...       0.01
freq.    1162.95  E(vib)   ...       0.01
freq.    1251.36  E(vib)   ...       0.01
freq.    1360.68  E(vib)   ...       0.01
freq.    1396.94  E(vib)   ...       0.00
freq.    1429.53  E(vib)   ...       0.00
freq.    1448.40  E(vib)   ...       0.00
freq.    1458.64  E(vib)   ...       0.00
freq.    1497.88  E(vib)   ...       0.00
freq.    1499.28  E(vib)   ...       0.00
freq.    1501.28  E(vib)   ...       0.00
freq.    1514.78  E(vib)   ...       0.00
freq.    1516.52  E(vib)   ...       0.00
freq.    1649.07  E(vib)   ...       0.00
freq.    3072.03  E(vib)   ...       0.00
freq.    3072.77  E(vib)   ...       0.00
freq.    3138.34  E(vib)   ...       0.00
freq.    3139.00  E(vib)   ...       0.00
freq.    3194.75  E(vib)   ...       0.00
freq.    3195.42  E(vib)   ...       0.00
freq.    3279.84  E(vib)   ...       0.00
freq.    3302.23  E(vib)   ...       0.00

------------
INNER ENERGY
------------

The inner energy is: U= E(el) + E(ZPE) + E(vib) + E(rot) + E(trans)
    E(el)   - is the total energy from the electronic structure calculation
              = E(kin-el) + E(nuc-el) + E(el-el) + E(nuc-nuc)
    E(ZPE)  - the the zero temperature vibrational energy from the frequency calculation
    E(vib)  - the the finite temperature correction to E(ZPE) due to population
              of excited vibrational states
    E(rot)  - is the rotational thermal energy
    E(trans)- is the translational thermal energy

Summary of contributions to the inner energy U:
Electronic energy                ...   -304.82881009 Eh
Zero point energy                ...      0.12813961 Eh      80.41 kcal/mol
Thermal vibrational correction   ...      0.00415720 Eh       2.61 kcal/mol
Thermal rotational correction    ...      0.00141627 Eh       0.89 kcal/mol
Thermal translational correction ...      0.00141627 Eh       0.89 kcal/mol
-----------------------------------------------------------------------
Total thermal energy                   -304.69368074 Eh

Summary of corrections to the electronic energy:
(perhaps to be used in another calculation)
Total thermal correction                  0.00698974 Eh       4.39 kcal/mol
Non-thermal (ZPE) correction              0.12813961 Eh      80.41 kcal/mol
-----------------------------------------------------------------------
Total correction                          0.13512935 Eh      84.79 kcal/mol

--------
ENTHALPY
--------

The enthalpy is H = U + kB*T
                kB is Boltzmann's constant
Total free energy                 ...   -304.69368074 Eh
Thermal Enthalpy correction       ...      0.00094421 Eh       0.59 kcal/mol
-----------------------------------------------------------------------
Total Enthalpy                    ...   -304.69273653 Eh

Note: Only C1 symmetry has been detected, increase convergence thresholds
      if your molecule has a higher symmetry. Symmetry factor of 1.0 is
      used for the rotational entropy correction.

Note: Rotational entropy computed according to Herzberg
Infrared and Raman Spectra, Chapter V,1, Van Nostrand Reinhold, 1945
Point Group:  C1, Symmetry Number:   1
Rotational constants in cm-1:     0.235679     0.070789     0.055581

Vibrational entropy computed according to the QRRHO of S. Grimme
Chem.Eur.J. 2012 18 9955

-------
ENTROPY
-------

The entropy contributions are T*S = T*(S(el)+S(vib)+S(rot)+S(trans))
     S(el)   - electronic entropy
     S(vib)  - vibrational entropy
     S(rot)  - rotational entropy
     S(trans)- translational entropy
The entropies will be listed as multiplied by the temperature to get
units of energy

Electronic entropy                ...      0.00000000 Eh      0.00 kcal/mol
Vibrational entropy               ...      0.00711620 Eh      4.47 kcal/mol
Rotational entropy                ...      0.01280753 Eh      8.04 kcal/mol
Translational entropy             ...      0.01881539 Eh     11.81 kcal/mol
-----------------------------------------------------------------------
Final entropy term                ...      0.03873912 Eh     24.31 kcal/mol

In case the symmetry of your molecule has not been determined correctly
or in case you have a reason to use a different symmetry number we print
out the resulting rotational entropy values for sn=1,12 :
 --------------------------------------------------------
|  sn= 1 | S(rot)=       0.01280753 Eh      8.04 kcal/mol|
|  sn= 2 | S(rot)=       0.01215308 Eh      7.63 kcal/mol|
|  sn= 3 | S(rot)=       0.01177024 Eh      7.39 kcal/mol|
|  sn= 4 | S(rot)=       0.01149862 Eh      7.22 kcal/mol|
|  sn= 5 | S(rot)=       0.01128793 Eh      7.08 kcal/mol|
|  sn= 6 | S(rot)=       0.01111579 Eh      6.98 kcal/mol|
|  sn= 7 | S(rot)=       0.01097024 Eh      6.88 kcal/mol|
|  sn= 8 | S(rot)=       0.01084416 Eh      6.80 kcal/mol|
|  sn= 9 | S(rot)=       0.01073295 Eh      6.74 kcal/mol|
|  sn=10 | S(rot)=       0.01063347 Eh      6.67 kcal/mol|
|  sn=11 | S(rot)=       0.01054348 Eh      6.62 kcal/mol|
|  sn=12 | S(rot)=       0.01046133 Eh      6.56 kcal/mol|
 --------------------------------------------------------

-------------------
GIBBS FREE ENERGY
-------------------

The Gibbs free energy is G = H - T*S

Total enthalpy                    ...   -304.69273653 Eh
Total entropy correction          ...     -0.03873912 Eh    -24.31 kcal/mol
-----------------------------------------------------------------------

                             ****ORCA TERMINATED NORMALLY****
TOTAL RUN TIME: 0 days 0 hours 11 minutes 55 seconds 300 msec
