                         Program Version 5.0.4 -  RELEASE  -
|  1> # ORCA 5.0.4 - /users/bwb16179/postgrad/2024_06/pKa_Reviewer_Comments/Gas_Z=0/2_deprot.inp # write input file
|  2> # Basic Mode
|  3> #
|  4> ! Opt Freq wB97X Def2-TZVP D4 SlowConv TightSCF Defgrid2 Def2/J RIJCOSX
|  5>
|  6> %PAL NPROCS 4 END
|  7>
|  8> %maxcore 4500
|  9>
| 10> %geom
| 11> Maxiter 150
| 12> END
| 13>
| 14> * xyzfile 0 1 2_deprot.xyz
| 15>
| 16>                          ****END OF INPUT****
 Total Charge           Charge          ....    0
 Multiplicity           Mult            ....    1
 Number of Electrons    NEL             ....   68
Dispersion correction           -0.002983369
FINAL SINGLE POINT ENERGY      -383.476165980929
Dispersion correction            ... Starting D4
Dispersion correction           -0.002989494
FINAL SINGLE POINT ENERGY      -383.477001726762
Dispersion correction            ... Starting D4
Dispersion correction           -0.002989801
FINAL SINGLE POINT ENERGY      -383.477011333222
Dispersion correction            ... Starting D4
Dispersion correction           -0.002989835
FINAL SINGLE POINT ENERGY      -383.477013590655
Dispersion correction            ... Starting D4
                    ***********************HURRAY********************

CARTESIAN COORDINATES (ANGSTROEM)
---------------------------------
  C     -0.020150    0.667683   -0.639863
  C     -0.029591   -0.682632   -0.639160
  N      0.010222    1.046912    0.697485
  N     -0.004793   -1.060896    0.698566
  C      0.020503   -0.006682    1.548975
  C      0.032594    2.419056    1.147202
  C     -0.002560   -2.432799    1.149557
  H     -0.864132    2.953560    0.825651
  H     -0.902296   -2.956720    0.819259
  H      0.872543   -2.967563    0.773646
  H      0.910148    2.942990    0.761977
  H      0.071209    2.406122    2.233265
  H      0.025412   -2.419351    2.235940
  C     -0.036213    1.647214   -1.759415
  C     -0.057179   -1.663135   -1.757615
  H      0.849088    2.288032   -1.747662
  H      0.823407   -2.310508   -1.748263
  H     -0.940223   -2.305373   -1.710292
  H     -0.914659    2.296049   -1.715915
  H     -0.055527    1.126088   -2.716197
  H     -0.076074   -1.142899   -2.714888

 Multiplicity           Mult            ....    1
 Number of Electrons    NEL             ....   68
 Basis Dimension        Dim             ....  351

ORBITAL ENERGIES
----------------

  NO   OCC          E(Eh)            E(eV)
   0   2.0000     -14.424754      -392.5175
   1   2.0000     -14.424724      -392.5167
   2   2.0000     -10.280434      -279.7448
   3   2.0000     -10.280427      -279.7446
   4   2.0000     -10.277222      -279.6574
   5   2.0000     -10.276475      -279.6371
   6   2.0000     -10.263641      -279.2879
   7   2.0000     -10.263630      -279.2876
   8   2.0000     -10.247662      -278.8531
   9   2.0000      -1.147157       -31.2157
  10   2.0000      -1.038301       -28.2536
  11   2.0000      -0.925684       -25.1891
  12   2.0000      -0.876825       -23.8596
  13   2.0000      -0.867343       -23.6016
  14   2.0000      -0.793321       -21.5874
  15   2.0000      -0.787210       -21.4211
  16   2.0000      -0.685393       -18.6505
  17   2.0000      -0.677888       -18.4463
  18   2.0000      -0.614624       -16.7248
  19   2.0000      -0.596163       -16.2224
  20   2.0000      -0.557860       -15.1801
  21   2.0000      -0.547345       -14.8940
  22   2.0000      -0.540877       -14.7180
  23   2.0000      -0.529964       -14.4211
  24   2.0000      -0.523879       -14.2555
  25   2.0000      -0.519534       -14.1372
  26   2.0000      -0.511561       -13.9203
  27   2.0000      -0.501405       -13.6439
  28   2.0000      -0.477113       -12.9829
  29   2.0000      -0.474003       -12.8983
  30   2.0000      -0.472171       -12.8484
  31   2.0000      -0.359281        -9.7765
  32   2.0000      -0.306483        -8.3398
  33   2.0000      -0.302366        -8.2278
  34   0.0000       0.106836         2.9072
  35   0.0000       0.125115         3.4046
  36   0.0000       0.131985         3.5915
  37   0.0000       0.134897         3.6707
  38   0.0000       0.152560         4.1514

MULLIKEN ATOMIC CHARGES
-----------------------
   0 C :   -0.008942
   1 C :   -0.008855
   2 N :   -0.051623
   3 N :   -0.051586
   4 C :   -0.236425
   5 C :   -0.286200
   6 C :   -0.286286
   7 H :    0.121980
   8 H :    0.121693
   9 H :    0.121112
  10 H :    0.120781
  11 H :    0.157438
  12 H :    0.157444
  13 C :   -0.307851
  14 C :   -0.308008
  15 H :    0.130484
  16 H :    0.130679
  17 H :    0.130448
  18 H :    0.130657
  19 H :    0.111522
  20 H :    0.111537
Sum of atomic charges:    0.0000000

LOEWDIN ATOMIC CHARGES
----------------------
   0 C :   -0.227756
   1 C :   -0.227768
   2 N :    0.194526
   3 N :    0.194527
   4 C :   -0.353204
   5 C :   -0.273255
   6 C :   -0.273253
   7 H :    0.113781
   8 H :    0.113767
   9 H :    0.113795
  10 H :    0.113775
  11 H :    0.129630
  12 H :    0.129632
  13 C :   -0.259641
  14 C :   -0.259638
  15 H :    0.128040
  16 H :    0.128113
  17 H :    0.128081
  18 H :    0.128149
  19 H :    0.129351
  20 H :    0.129348

  Mayer bond orders larger than 0.100000
B(  0-C ,  1-C ) :   1.7880 B(  0-C ,  2-N ) :   1.1238 B(  0-C , 13-C ) :   0.8553
B(  1-C ,  3-N ) :   1.1238 B(  1-C , 14-C ) :   0.8550 B(  2-N ,  4-C ) :   1.1759
B(  2-N ,  5-C ) :   0.8907 B(  3-N ,  4-C ) :   1.1759 B(  3-N ,  6-C ) :   0.8907
B(  5-C ,  7-H ) :   0.9740 B(  5-C , 10-H ) :   0.9740 B(  5-C , 11-H ) :   0.9752
B(  6-C ,  8-H ) :   0.9741 B(  6-C ,  9-H ) :   0.9739 B(  6-C , 12-H ) :   0.9752
B( 13-C , 15-H ) :   0.9840 B( 13-C , 18-H ) :   0.9832 B( 13-C , 19-H ) :   1.0024
B( 14-C , 16-H ) :   0.9837 B( 14-C , 17-H ) :   0.9835 B( 14-C , 20-H ) :   1.0025

Dispersion correction           -0.002989788
FINAL SINGLE POINT ENERGY      -383.477014087025

DIPOLE MOMENT
-------------
                                X             Y             Z
Electronic contribution:      0.05345       0.00170       3.46299
Nuclear contribution   :     -0.07622      -0.00224      -4.71345
                        -----------------------------------------
Total Dipole Moment    :     -0.02277      -0.00054      -1.25046
                        -----------------------------------------
Magnitude (a.u.)       :      1.25066
Magnitude (Debye)      :      3.17894

Dispersion correction in the Hessian             ... Starting D4

VIBRATIONAL FREQUENCIES
-----------------------

Scaling factor for frequencies =  1.000000000  (already applied!)

   0:         0.00 cm**-1
   1:         0.00 cm**-1
   2:         0.00 cm**-1
   3:         0.00 cm**-1
   4:         0.00 cm**-1
   5:         0.00 cm**-1
   6:       117.15 cm**-1
   7:       123.69 cm**-1
   8:       146.35 cm**-1
   9:       168.08 cm**-1
  10:       184.06 cm**-1
  11:       187.79 cm**-1
  12:       277.29 cm**-1
  13:       280.72 cm**-1
  14:       290.08 cm**-1
  15:       303.41 cm**-1
  16:       319.85 cm**-1
  17:       550.59 cm**-1
  18:       583.38 cm**-1
  19:       627.37 cm**-1
  20:       630.39 cm**-1
  21:       678.97 cm**-1
  22:       730.22 cm**-1
  23:       870.52 cm**-1
  24:       976.71 cm**-1
  25:      1068.78 cm**-1
  26:      1082.23 cm**-1
  27:      1085.12 cm**-1
  28:      1094.42 cm**-1
  29:      1121.91 cm**-1
  30:      1159.85 cm**-1
  31:      1160.25 cm**-1
  32:      1182.35 cm**-1
  33:      1259.34 cm**-1
  34:      1397.17 cm**-1
  35:      1403.19 cm**-1
  36:      1430.73 cm**-1
  37:      1437.62 cm**-1
  38:      1448.23 cm**-1
  39:      1457.03 cm**-1
  40:      1463.13 cm**-1
  41:      1468.79 cm**-1
  42:      1481.47 cm**-1
  43:      1483.72 cm**-1
  44:      1498.51 cm**-1
  45:      1499.38 cm**-1
  46:      1501.15 cm**-1
  47:      1507.07 cm**-1
  48:      1517.57 cm**-1
  49:      1518.74 cm**-1
  50:      1752.67 cm**-1
  51:      3061.45 cm**-1
  52:      3062.06 cm**-1
  53:      3065.16 cm**-1
  54:      3066.68 cm**-1
  55:      3120.56 cm**-1
  56:      3120.60 cm**-1
  57:      3128.28 cm**-1
  58:      3128.41 cm**-1
  59:      3159.16 cm**-1
  60:      3161.51 cm**-1
  61:      3192.88 cm**-1
  62:      3193.14 cm**-1

IR SPECTRUM
-----------

 Mode   freq       eps      Int      T**2         TX        TY        TZ
       cm**-1   L/(mol*cm) km/mol    a.u.
----------------------------------------------------------------------------
  6:    117.15   0.000214    1.08  0.000571  (-0.023865  0.000377 -0.000969)
  7:    123.69   0.000001    0.00  0.000002  (-0.000558 -0.001282  0.000096)
  8:    146.35   0.000001    0.01  0.000003  ( 0.000978 -0.001244  0.000061)
  9:    168.08   0.000743    3.76  0.001380  (-0.037143  0.000141  0.000498)
 10:    184.06   0.001323    6.69  0.002244  ( 0.047329 -0.000137 -0.001865)
 11:    187.79   0.000011    0.06  0.000019  (-0.004265  0.000722  0.000251)
 12:    277.29   0.000036    0.18  0.000040  ( 0.000988 -0.001164 -0.006169)
 13:    280.72   0.000300    1.51  0.000333  (-0.000134 -0.018248  0.000242)
 14:    290.08   0.000069    0.35  0.000075  ( 0.008616 -0.000123  0.000620)
 15:    303.41   0.000574    2.90  0.000591  ( 0.000736 -0.000077  0.024292)
 16:    319.85   0.000000    0.00  0.000000  (-0.000128  0.000135 -0.000252)
 17:    550.59   0.000239    1.21  0.000135  ( 0.000024  0.011632 -0.000001)
 18:    583.38   0.000967    4.89  0.000517  (-0.000177 -0.022745  0.000009)
 19:    627.37   0.000873    4.41  0.000434  ( 0.020835 -0.000039 -0.000274)
 20:    630.39   0.000331    1.67  0.000164  ( 0.000129 -0.000006  0.012804)
 21:    678.97   0.000000    0.00  0.000000  (-0.000012  0.000126  0.000039)
 22:    730.22   0.001290    6.52  0.000551  ( 0.000558 -0.000002  0.023473)
 23:    870.52   0.003806   19.23  0.001364  (-0.000240 -0.036937  0.000011)
 24:    976.71   0.000283    1.43  0.000090  ( 0.000181 -0.000002  0.009503)
 25:   1068.78   0.000026    0.13  0.000008  ( 0.002742 -0.000246 -0.000184)
 26:   1082.23   0.000006    0.03  0.000002  ( 0.000078 -0.001321  0.000011)
 27:   1085.12   0.000001    0.00  0.000000  (-0.000042 -0.000465 -0.000113)
 28:   1094.42   0.000001    0.00  0.000000  (-0.000060 -0.000010 -0.000456)
 29:   1121.91   0.000200    1.01  0.000056  (-0.000065 -0.007459  0.000012)
 30:   1159.85   0.000045    0.23  0.000012  (-0.003495  0.000095 -0.000055)
 31:   1160.25   0.000027    0.14  0.000007  ( 0.002699  0.000275  0.000014)
 32:   1182.35   0.000234    1.18  0.000062  ( 0.000123  0.000004  0.007859)
 33:   1259.34   0.000869    4.39  0.000215  (-0.000075 -0.014675  0.000008)
 34:   1397.17   0.000967    4.89  0.000216  (-0.000050  0.000006 -0.014694)
 35:   1403.19   0.000004    0.02  0.000001  (-0.000074  0.000963 -0.000125)
 36:   1430.73   0.000657    3.32  0.000143  ( 0.000845  0.000215  0.011938)
 37:   1437.62   0.013602   68.74  0.002953  ( 0.000244  0.054336 -0.000013)
 38:   1448.23   0.000193    0.98  0.000042  ( 0.000133 -0.006447 -0.000207)
 39:   1457.03   0.001014    5.13  0.000217  ( 0.001069 -0.000569  0.014689)
 40:   1463.13   0.003842   19.41  0.000819  (-0.001463 -0.000047 -0.028587)
 41:   1468.79   0.008891   44.93  0.001889  ( 0.000600  0.043459  0.000050)
 42:   1481.47   0.000019    0.10  0.000004  ( 0.000421  0.001974 -0.000162)
 43:   1483.72   0.000749    3.79  0.000158  ( 0.012549 -0.000154 -0.000244)
 44:   1498.51   0.000190    0.96  0.000040  (-0.006063 -0.001094 -0.001249)
 45:   1499.38   0.005619   28.40  0.001170  (-0.030299  0.000186 -0.015857)
 46:   1501.15   0.004897   24.75  0.001018  ( 0.022194 -0.000208 -0.022923)
 47:   1507.07   0.001351    6.83  0.000280  ( 0.000017  0.016728 -0.000146)
 48:   1517.57   0.000371    1.87  0.000076  ( 0.000091 -0.008730  0.000221)
 49:   1518.74   0.002508   12.68  0.000515  (-0.001044  0.000087  0.022679)
 50:   1752.67   0.000321    1.62  0.000057  ( 0.000139  0.000007  0.007557)
 51:   3061.45   0.003372   17.04  0.000344  ( 0.000043  0.018538 -0.000108)
 52:   3062.06   0.003487   17.62  0.000355  (-0.000257 -0.000133 -0.018849)
 53:   3065.16   0.026515  134.00  0.002700  ( 0.000191  0.051956 -0.000018)
 54:   3066.68   0.000625    3.16  0.000064  (-0.000276  0.000096 -0.007973)
 55:   3120.56   0.000019    0.09  0.000002  (-0.001359  0.000032  0.000048)
 56:   3120.60   0.004391   22.19  0.000439  (-0.020953  0.000056  0.000287)
 57:   3128.28   0.000039    0.20  0.000004  (-0.001959 -0.000054  0.000205)
 58:   3128.41   0.010430   52.71  0.001040  ( 0.032241 -0.000111 -0.000926)
 59:   3159.16   0.002516   12.71  0.000248  ( 0.000115  0.015762  0.000150)
 60:   3161.51   0.003798   19.19  0.000375  ( 0.000388 -0.000115  0.019358)
 61:   3192.88   0.001233    6.23  0.000121  ( 0.000308  0.000010  0.010974)
 62:   3193.14   0.000030    0.15  0.000003  ( 0.000014 -0.001713  0.000036)

--------------------------
THERMOCHEMISTRY AT 298.15K
--------------------------

Temperature         ... 298.15 K
Pressure            ... 1.00 atm
Total Mass          ... 124.19 AMU

Throughout the following assumptions are being made:
  (1) The electronic state is orbitally nondegenerate
  (2) There are no thermally accessible electronically excited states
  (3) Hindered rotations indicated by low frequency modes are not
      treated as such but are treated as vibrations and this may
      cause some error
  (4) All equations used are the standard statistical mechanics
      equations for an ideal gas
  (5) All vibrations are strictly harmonic

freq.     117.15  E(vib)   ...       0.44
freq.     123.69  E(vib)   ...       0.43
freq.     146.35  E(vib)   ...       0.41
freq.     168.08  E(vib)   ...       0.38
freq.     184.06  E(vib)   ...       0.37
freq.     187.79  E(vib)   ...       0.36
freq.     277.29  E(vib)   ...       0.28
freq.     280.72  E(vib)   ...       0.28
freq.     290.08  E(vib)   ...       0.27
freq.     303.41  E(vib)   ...       0.26
freq.     319.85  E(vib)   ...       0.25
freq.     550.59  E(vib)   ...       0.12
freq.     583.38  E(vib)   ...       0.11
freq.     627.37  E(vib)   ...       0.09
freq.     630.39  E(vib)   ...       0.09
freq.     678.97  E(vib)   ...       0.08
freq.     730.22  E(vib)   ...       0.06
freq.     870.52  E(vib)   ...       0.04
freq.     976.71  E(vib)   ...       0.03
freq.    1068.78  E(vib)   ...       0.02
freq.    1082.23  E(vib)   ...       0.02
freq.    1085.12  E(vib)   ...       0.02
freq.    1094.42  E(vib)   ...       0.02
freq.    1121.91  E(vib)   ...       0.01
freq.    1159.85  E(vib)   ...       0.01
freq.    1160.25  E(vib)   ...       0.01
freq.    1182.35  E(vib)   ...       0.01
freq.    1259.34  E(vib)   ...       0.01
freq.    1397.17  E(vib)   ...       0.00
freq.    1403.19  E(vib)   ...       0.00
freq.    1430.73  E(vib)   ...       0.00
freq.    1437.62  E(vib)   ...       0.00
freq.    1448.23  E(vib)   ...       0.00
freq.    1457.03  E(vib)   ...       0.00
freq.    1463.13  E(vib)   ...       0.00
freq.    1468.79  E(vib)   ...       0.00
freq.    1481.47  E(vib)   ...       0.00
freq.    1483.72  E(vib)   ...       0.00
freq.    1498.51  E(vib)   ...       0.00
freq.    1499.38  E(vib)   ...       0.00
freq.    1501.15  E(vib)   ...       0.00
freq.    1507.07  E(vib)   ...       0.00
freq.    1517.57  E(vib)   ...       0.00
freq.    1518.74  E(vib)   ...       0.00
freq.    1752.67  E(vib)   ...       0.00
freq.    3061.45  E(vib)   ...       0.00
freq.    3062.06  E(vib)   ...       0.00
freq.    3065.16  E(vib)   ...       0.00
freq.    3066.68  E(vib)   ...       0.00
freq.    3120.56  E(vib)   ...       0.00
freq.    3120.60  E(vib)   ...       0.00
freq.    3128.28  E(vib)   ...       0.00
freq.    3128.41  E(vib)   ...       0.00
freq.    3159.16  E(vib)   ...       0.00
freq.    3161.51  E(vib)   ...       0.00
freq.    3192.88  E(vib)   ...       0.00
freq.    3193.14  E(vib)   ...       0.00

------------
INNER ENERGY
------------

The inner energy is: U= E(el) + E(ZPE) + E(vib) + E(rot) + E(trans)
    E(el)   - is the total energy from the electronic structure calculation
              = E(kin-el) + E(nuc-el) + E(el-el) + E(nuc-nuc)
    E(ZPE)  - the the zero temperature vibrational energy from the frequency calculation
    E(vib)  - the the finite temperature correction to E(ZPE) due to population
              of excited vibrational states
    E(rot)  - is the rotational thermal energy
    E(trans)- is the translational thermal energy

Summary of contributions to the inner energy U:
Electronic energy                ...   -383.47701409 Eh
Zero point energy                ...      0.18450177 Eh     115.78 kcal/mol
Thermal vibrational correction   ...      0.00722351 Eh       4.53 kcal/mol
Thermal rotational correction    ...      0.00141627 Eh       0.89 kcal/mol
Thermal translational correction ...      0.00141627 Eh       0.89 kcal/mol
-----------------------------------------------------------------------
Total thermal energy                   -383.28245626 Eh

Summary of corrections to the electronic energy:
(perhaps to be used in another calculation)
Total thermal correction                  0.01005605 Eh       6.31 kcal/mol
Non-thermal (ZPE) correction              0.18450177 Eh     115.78 kcal/mol
-----------------------------------------------------------------------
Total correction                          0.19455782 Eh     122.09 kcal/mol

--------
ENTHALPY
--------

The enthalpy is H = U + kB*T
                kB is Boltzmann's constant
Total free energy                 ...   -383.28245626 Eh
Thermal Enthalpy correction       ...      0.00094421 Eh       0.59 kcal/mol
-----------------------------------------------------------------------
Total Enthalpy                    ...   -383.28151206 Eh

Note: Only C1 symmetry has been detected, increase convergence thresholds
      if your molecule has a higher symmetry. Symmetry factor of 1.0 is
      used for the rotational entropy correction.

Note: Rotational entropy computed according to Herzberg
Infrared and Raman Spectra, Chapter V,1, Van Nostrand Reinhold, 1945
Point Group:  C1, Symmetry Number:   1
Rotational constants in cm-1:     0.082586     0.051639     0.032547

Vibrational entropy computed according to the QRRHO of S. Grimme
Chem.Eur.J. 2012 18 9955

-------
ENTROPY
-------

The entropy contributions are T*S = T*(S(el)+S(vib)+S(rot)+S(trans))
     S(el)   - electronic entropy
     S(vib)  - vibrational entropy
     S(rot)  - rotational entropy
     S(trans)- translational entropy
The entropies will be listed as multiplied by the temperature to get
units of energy

Electronic entropy                ...      0.00000000 Eh      0.00 kcal/mol
Vibrational entropy               ...      0.01247889 Eh      7.83 kcal/mol
Rotational entropy                ...      0.01370413 Eh      8.60 kcal/mol
Translational entropy             ...      0.01917803 Eh     12.03 kcal/mol
-----------------------------------------------------------------------
Final entropy term                ...      0.04536106 Eh     28.46 kcal/mol

In case the symmetry of your molecule has not been determined correctly
or in case you have a reason to use a different symmetry number we print
out the resulting rotational entropy values for sn=1,12 :
 --------------------------------------------------------
|  sn= 1 | S(rot)=       0.01370413 Eh      8.60 kcal/mol|
|  sn= 2 | S(rot)=       0.01304968 Eh      8.19 kcal/mol|
|  sn= 3 | S(rot)=       0.01266684 Eh      7.95 kcal/mol|
|  sn= 4 | S(rot)=       0.01239522 Eh      7.78 kcal/mol|
|  sn= 5 | S(rot)=       0.01218453 Eh      7.65 kcal/mol|
|  sn= 6 | S(rot)=       0.01201239 Eh      7.54 kcal/mol|

                             ****ORCA TERMINATED NORMALLY****
TOTAL RUN TIME: 0 days 0 hours 27 minutes 41 seconds 413 msec
