                         Program Version 5.0.4 -  RELEASE  -
|  1> # ORCA 5.0.4 - /users/bwb16179/postgrad/2024_06/pKa_Reviewer_Comments/Gas_Z=0/3_deprot.inp # write input file
|  2> # Basic Mode
|  3> #
|  4> ! Opt Freq wB97X Def2-TZVP D4 SlowConv TightSCF Defgrid2 Def2/J RIJCOSX
|  5>
|  6> %PAL NPROCS 4 END
|  7>
|  8> %maxcore 4500
|  9>
| 10> %geom
| 11> Maxiter 150
| 12> END
| 13>
| 14> * xyzfile 0 1 3_deprot.xyz
| 15>
| 16>                          ****END OF INPUT****
 Total Charge           Charge          ....    0
 Multiplicity           Mult            ....    1
 Number of Electrons    NEL             ....   84
Dispersion correction           -0.002556156
FINAL SINGLE POINT ENERGY     -1224.047262508246
Dispersion correction            ... Starting D4
Dispersion correction           -0.002560567
FINAL SINGLE POINT ENERGY     -1224.047815969349
Dispersion correction            ... Starting D4
Dispersion correction           -0.002560939
FINAL SINGLE POINT ENERGY     -1224.047826683802
Dispersion correction            ... Starting D4
                    ***********************HURRAY********************

CARTESIAN COORDINATES (ANGSTROEM)
---------------------------------
  N      0.069373    1.067870    1.100703
  N     -0.068922   -1.052395    1.108963
  C      0.039335    0.674883   -0.221720
  C     -0.047123   -0.669186   -0.216453
  C      0.002995    0.010845    1.949603
  Cl     0.102907    1.748057   -1.533474
  Cl    -0.119879   -1.752328   -1.519448
  C      0.162662    2.441698    1.546507
  C     -0.159200   -2.423028    1.565120
  H      0.191194    2.420651    2.632459
  H     -0.189994   -2.393819    2.650810
  H     -0.702080    3.016568    1.212869
  H     -1.064250   -2.896238    1.183118
  H      0.707770   -2.998144    1.237679
  H      1.069801    2.909675    1.162944

 Multiplicity           Mult            ....    1
 Number of Electrons    NEL             ....   84
 Basis Dimension        Dim             ....  327

ORBITAL ENERGIES
----------------

  NO   OCC          E(Eh)            E(eV)
   0   2.0000    -101.524852     -2762.6317
   1   2.0000    -101.524843     -2762.6314
   2   2.0000     -14.458241      -393.4287
   3   2.0000     -14.458211      -393.4279
   4   2.0000     -10.351254      -281.6719
   5   2.0000     -10.350486      -281.6510
   6   2.0000     -10.296439      -280.1804
   7   2.0000     -10.296433      -280.1802
   8   2.0000     -10.277474      -279.6643
   9   2.0000      -9.574174      -260.5265
  10   2.0000      -9.574161      -260.5262
  11   2.0000      -7.335612      -199.6121
  12   2.0000      -7.335604      -199.6119
  13   2.0000      -7.325645      -199.3409
  14   2.0000      -7.325637      -199.3407
  15   2.0000      -7.325596      -199.3396
  16   2.0000      -7.325588      -199.3394
  17   2.0000      -1.185934       -32.2709
  18   2.0000      -1.076482       -29.2926
  19   2.0000      -1.030618       -28.0445
  20   2.0000      -0.996063       -27.1043
  21   2.0000      -0.914171       -24.8759
  22   2.0000      -0.843294       -22.9472
  23   2.0000      -0.821868       -22.3642
  24   2.0000      -0.720142       -19.5961
  25   2.0000      -0.714144       -19.4328
  26   2.0000      -0.644309       -17.5325
  27   2.0000      -0.619606       -16.8603
  28   2.0000      -0.585183       -15.9236
  29   2.0000      -0.570757       -15.5311
  30   2.0000      -0.570589       -15.5265
  31   2.0000      -0.557030       -15.1576
  32   2.0000      -0.524481       -14.2718
  33   2.0000      -0.520347       -14.1593
  34   2.0000      -0.502499       -13.6737
  35   2.0000      -0.473705       -12.8902
  36   2.0000      -0.464388       -12.6366
  37   2.0000      -0.452099       -12.3023
  38   2.0000      -0.447313       -12.1720
  39   2.0000      -0.383415       -10.4333
  40   2.0000      -0.330669        -8.9980
  41   2.0000      -0.321666        -8.7530
  42   0.0000       0.095338         2.5943
  43   0.0000       0.107207         2.9173
  44   0.0000       0.112448         3.0599
  45   0.0000       0.128476         3.4960
  46   0.0000       0.133697         3.6381

MULLIKEN ATOMIC CHARGES
-----------------------
   0 N :   -0.045854
   1 N :   -0.045869
   2 C :    0.018454
   3 C :    0.018215
   4 C :   -0.206432
   5 Cl:   -0.015182
   6 Cl:   -0.015169
   7 C :   -0.291100
   8 C :   -0.291033
   9 H :    0.160443
  10 H :    0.160415
  11 H :    0.138607
  12 H :    0.137846
  13 H :    0.138708
  14 H :    0.137951
Sum of atomic charges:   -0.0000000

LOEWDIN ATOMIC CHARGES
----------------------
   0 N :    0.182211
   1 N :    0.182195
   2 C :   -0.565413
   3 C :   -0.565471
   4 C :   -0.329046
   5 Cl:    0.454444
   6 Cl:    0.454522
   7 C :   -0.274326
   8 C :   -0.274326
   9 H :    0.131642
  10 H :    0.131626
  11 H :    0.118065
  12 H :    0.117877
  13 H :    0.118095
  14 H :    0.117906

  Mayer bond orders larger than 0.100000
B(  0-N ,  2-C ) :   1.1099 B(  0-N ,  4-C ) :   1.1777 B(  0-N ,  7-C ) :   0.8843
B(  1-N ,  3-C ) :   1.1100 B(  1-N ,  4-C ) :   1.1776 B(  1-N ,  8-C ) :   0.8843
B(  2-C ,  3-C ) :   1.6358 B(  2-C ,  5-Cl) :   1.2211 B(  3-C ,  6-Cl) :   1.2212
B(  7-C ,  9-H ) :   0.9699 B(  7-C , 11-H ) :   0.9693 B(  7-C , 14-H ) :   0.9693
B(  8-C , 10-H ) :   0.9700 B(  8-C , 12-H ) :   0.9693 B(  8-C , 13-H ) :   0.9694

Dispersion correction           -0.002560963
FINAL SINGLE POINT ENERGY     -1224.047827129349

DIPOLE MOMENT
-------------
                                X             Y             Z
Electronic contribution:     -0.04610      -0.05210     -14.00846
Nuclear contribution   :      0.04518       0.05108      13.77422
                        -----------------------------------------
Total Dipole Moment    :     -0.00092      -0.00103      -0.23424
                        -----------------------------------------
Magnitude (a.u.)       :      0.23424
Magnitude (Debye)      :      0.59540

Dispersion correction in the Hessian             ... Starting D4

VIBRATIONAL FREQUENCIES
-----------------------

Scaling factor for frequencies =  1.000000000  (already applied!)

   0:         0.00 cm**-1
   1:         0.00 cm**-1
   2:         0.00 cm**-1
   3:         0.00 cm**-1
   4:         0.00 cm**-1
   5:         0.00 cm**-1
   6:       106.71 cm**-1
   7:       134.86 cm**-1
   8:       147.64 cm**-1
   9:       171.75 cm**-1
  10:       174.68 cm**-1
  11:       238.04 cm**-1
  12:       272.38 cm**-1
  13:       287.96 cm**-1
  14:       319.38 cm**-1
  15:       440.57 cm**-1
  16:       539.44 cm**-1
  17:       579.68 cm**-1
  18:       625.57 cm**-1
  19:       652.02 cm**-1
  20:       686.88 cm**-1
  21:       886.32 cm**-1
  22:      1087.75 cm**-1
  23:      1092.49 cm**-1
  24:      1109.51 cm**-1
  25:      1164.42 cm**-1
  26:      1164.95 cm**-1
  27:      1180.28 cm**-1
  28:      1362.83 cm**-1
  29:      1383.41 cm**-1
  30:      1437.48 cm**-1
  31:      1444.26 cm**-1
  32:      1465.19 cm**-1
  33:      1476.20 cm**-1
  34:      1495.13 cm**-1
  35:      1495.98 cm**-1
  36:      1515.52 cm**-1
  37:      1515.68 cm**-1
  38:      1684.75 cm**-1
  39:      3082.37 cm**-1
  40:      3082.89 cm**-1
  41:      3154.41 cm**-1
  42:      3154.49 cm**-1
  43:      3201.81 cm**-1
  44:      3202.08 cm**-1

IR SPECTRUM
-----------

 Mode   freq       eps      Int      T**2         TX        TY        TZ
       cm**-1   L/(mol*cm) km/mol    a.u.
----------------------------------------------------------------------------
  6:    106.71   0.000000    0.00  0.000000  (-0.000189  0.000031  0.000074)
  7:    134.86   0.000369    1.87  0.000854  (-0.029126  0.002436  0.000220)
  8:    147.64   0.000004    0.02  0.000009  ( 0.002912 -0.000397  0.000152)
  9:    171.75   0.000064    0.32  0.000116  (-0.000862  0.000082  0.010731)
 10:    174.68   0.000995    5.03  0.001778  (-0.042102  0.002270 -0.000206)
 11:    238.04   0.000047    0.24  0.000062  (-0.000346 -0.007878  0.000103)
 12:    272.38   0.000850    4.29  0.000974  (-0.031157  0.001667 -0.000155)
 13:    287.96   0.001029    5.20  0.001116  ( 0.000125 -0.000132 -0.033401)
 14:    319.38   0.000000    0.00  0.000000  ( 0.000007 -0.000022  0.000494)
 15:    440.57   0.001054    5.32  0.000746  (-0.001995 -0.027245  0.000109)
 16:    539.44   0.000790    3.99  0.000457  (-0.000086 -0.000143 -0.021379)
 17:    579.68   0.001623    8.20  0.000874  (-0.001815 -0.029505  0.000173)
 18:    625.57   0.000549    2.77  0.000274  (-0.016521  0.000842  0.000032)
 19:    652.02   0.000905    4.57  0.000433  (-0.000049 -0.000099 -0.020808)
 20:    686.88   0.000000    0.00  0.000000  (-0.000004  0.000086 -0.000120)
 21:    886.32   0.000363    1.83  0.000128  ( 0.000818  0.011269 -0.000048)
 22:   1087.75   0.001352    6.83  0.000388  (-0.000087 -0.000098 -0.019693)
 23:   1092.49   0.000032    0.16  0.000009  (-0.000416 -0.002981 -0.000176)
 24:   1109.51   0.005941   30.02  0.001671  (-0.000128 -0.000079 -0.040878)
 25:   1164.42   0.000040    0.20  0.000011  ( 0.003104  0.001003 -0.000028)
 26:   1164.95   0.000000    0.00  0.000000  (-0.000086 -0.000218 -0.000023)
 27:   1180.28   0.010866   54.91  0.002873  (-0.003392 -0.053491  0.000187)
 28:   1362.83   0.002119   10.71  0.000485  (-0.001304 -0.021987  0.000126)
 29:   1383.41   0.002219   11.21  0.000500  (-0.000121 -0.000152 -0.022371)
 30:   1437.48   0.011139   56.29  0.002418  (-0.001977 -0.049135  0.000199)
 31:   1444.26   0.002220   11.22  0.000480  (-0.000187  0.000087 -0.021899)
 32:   1465.19   0.004094   20.69  0.000872  ( 0.000215 -0.000341 -0.029527)
 33:   1476.20   0.006794   34.33  0.001436  (-0.005007 -0.037565  0.000173)
 34:   1495.13   0.000066    0.33  0.000014  ( 0.003121 -0.000147 -0.001979)
 35:   1495.98   0.004380   22.13  0.000914  ( 0.030113 -0.002612  0.000086)
 36:   1515.52   0.000911    4.60  0.000188  (-0.000892 -0.002579 -0.013421)
 37:   1515.68   0.005511   27.85  0.001135  ( 0.000040  0.000924 -0.033671)
 38:   1684.75   0.003865   19.53  0.000716  (-0.000083 -0.000123 -0.026756)
 39:   3082.37   0.012911   65.24  0.001307  (-0.001666 -0.036115  0.000037)
 40:   3082.89   0.000122    0.62  0.000012  ( 0.000056 -0.001131  0.003329)
 41:   3154.41   0.000378    1.91  0.000037  (-0.006094  0.000335  0.000383)
 42:   3154.49   0.004655   23.53  0.000461  ( 0.021431 -0.001106  0.000105)
 43:   3201.81   0.000508    2.57  0.000049  (-0.000023 -0.000480  0.007017)
 44:   3202.08   0.000077    0.39  0.000007  ( 0.000119  0.002223  0.001586)

--------------------------
THERMOCHEMISTRY AT 298.15K
--------------------------

Temperature         ... 298.15 K
Pressure            ... 1.00 atm
Total Mass          ... 165.02 AMU

Throughout the following assumptions are being made:
  (1) The electronic state is orbitally nondegenerate
  (2) There are no thermally accessible electronically excited states
  (3) Hindered rotations indicated by low frequency modes are not
      treated as such but are treated as vibrations and this may
      cause some error
  (4) All equations used are the standard statistical mechanics
      equations for an ideal gas
  (5) All vibrations are strictly harmonic

freq.     106.71  E(vib)   ...       0.45
freq.     134.86  E(vib)   ...       0.42
freq.     147.64  E(vib)   ...       0.41
freq.     171.75  E(vib)   ...       0.38
freq.     174.68  E(vib)   ...       0.38
freq.     238.04  E(vib)   ...       0.32
freq.     272.38  E(vib)   ...       0.29
freq.     287.96  E(vib)   ...       0.27
freq.     319.38  E(vib)   ...       0.25
freq.     440.57  E(vib)   ...       0.17
freq.     539.44  E(vib)   ...       0.12
freq.     579.68  E(vib)   ...       0.11
freq.     625.57  E(vib)   ...       0.09
freq.     652.02  E(vib)   ...       0.08
freq.     686.88  E(vib)   ...       0.07
freq.     886.32  E(vib)   ...       0.04
freq.    1087.75  E(vib)   ...       0.02
freq.    1092.49  E(vib)   ...       0.02
freq.    1109.51  E(vib)   ...       0.02
freq.    1164.42  E(vib)   ...       0.01
freq.    1164.95  E(vib)   ...       0.01
freq.    1180.28  E(vib)   ...       0.01
freq.    1362.83  E(vib)   ...       0.01
freq.    1383.41  E(vib)   ...       0.00
freq.    1437.48  E(vib)   ...       0.00
freq.    1444.26  E(vib)   ...       0.00
freq.    1465.19  E(vib)   ...       0.00
freq.    1476.20  E(vib)   ...       0.00
freq.    1495.13  E(vib)   ...       0.00
freq.    1495.98  E(vib)   ...       0.00
freq.    1515.52  E(vib)   ...       0.00
freq.    1515.68  E(vib)   ...       0.00
freq.    1684.75  E(vib)   ...       0.00
freq.    3082.37  E(vib)   ...       0.00
freq.    3082.89  E(vib)   ...       0.00
freq.    3154.41  E(vib)   ...       0.00
freq.    3154.49  E(vib)   ...       0.00
freq.    3201.81  E(vib)   ...       0.00
freq.    3202.08  E(vib)   ...       0.00

------------
INNER ENERGY
------------

The inner energy is: U= E(el) + E(ZPE) + E(vib) + E(rot) + E(trans)
    E(el)   - is the total energy from the electronic structure calculation
              = E(kin-el) + E(nuc-el) + E(el-el) + E(nuc-nuc)
    E(ZPE)  - the the zero temperature vibrational energy from the frequency calculation
    E(vib)  - the the finite temperature correction to E(ZPE) due to population
              of excited vibrational states
    E(rot)  - is the rotational thermal energy
    E(trans)- is the translational thermal energy

Summary of contributions to the inner energy U:
Electronic energy                ...  -1224.04782713 Eh
Zero point energy                ...      0.10984816 Eh      68.93 kcal/mol
Thermal vibrational correction   ...      0.00632790 Eh       3.97 kcal/mol
Thermal rotational correction    ...      0.00141627 Eh       0.89 kcal/mol
Thermal translational correction ...      0.00141627 Eh       0.89 kcal/mol
-----------------------------------------------------------------------
Total thermal energy                  -1223.92881853 Eh

Summary of corrections to the electronic energy:
(perhaps to be used in another calculation)
Total thermal correction                  0.00916044 Eh       5.75 kcal/mol
Non-thermal (ZPE) correction              0.10984816 Eh      68.93 kcal/mol
-----------------------------------------------------------------------
Total correction                          0.11900860 Eh      74.68 kcal/mol

--------
ENTHALPY
--------

The enthalpy is H = U + kB*T
                kB is Boltzmann's constant
Total free energy                 ...  -1223.92881853 Eh
Thermal Enthalpy correction       ...      0.00094421 Eh       0.59 kcal/mol
-----------------------------------------------------------------------
Total Enthalpy                    ...  -1223.92787432 Eh

Note: Only C1 symmetry has been detected, increase convergence thresholds
      if your molecule has a higher symmetry. Symmetry factor of 1.0 is
      used for the rotational entropy correction.

Note: Rotational entropy computed according to Herzberg
Infrared and Raman Spectra, Chapter V,1, Van Nostrand Reinhold, 1945
Point Group:  C1, Symmetry Number:   1
Rotational constants in cm-1:     0.051615     0.037163     0.021784

Vibrational entropy computed according to the QRRHO of S. Grimme
Chem.Eur.J. 2012 18 9955

-------
ENTROPY
-------

The entropy contributions are T*S = T*(S(el)+S(vib)+S(rot)+S(trans))
     S(el)   - electronic entropy
     S(vib)  - vibrational entropy
     S(rot)  - rotational entropy
     S(trans)- translational entropy
The entropies will be listed as multiplied by the temperature to get
units of energy

Electronic entropy                ...      0.00000000 Eh      0.00 kcal/mol
Vibrational entropy               ...      0.01100527 Eh      6.91 kcal/mol
Rotational entropy                ...      0.01427090 Eh      8.96 kcal/mol
Translational entropy             ...      0.01958067 Eh     12.29 kcal/mol
-----------------------------------------------------------------------
Final entropy term                ...      0.04485684 Eh     28.15 kcal/mol

In case the symmetry of your molecule has not been determined correctly
or in case you have a reason to use a different symmetry number we print
out the resulting rotational entropy values for sn=1,12 :
 --------------------------------------------------------
|  sn= 1 | S(rot)=       0.01427090 Eh      8.96 kcal/mol|
|  sn= 2 | S(rot)=       0.01361644 Eh      8.54 kcal/mol|
|  sn= 3 | S(rot)=       0.01323361 Eh      8.30 kcal/mol|
|  sn= 4 | S(rot)=       0.01296198 Eh      8.13 kcal/mol|
|  sn= 5 | S(rot)=       0.01275129 Eh      8.00 kcal/mol|
|  sn= 6 | S(rot)=       0.01257915 Eh      7.89 kcal/mol|
|  sn= 7 | S(rot)=       0.01243360 Eh      7.80 kcal/mol|
|  sn= 8 | S(rot)=       0.01230753 Eh      7.72 kcal/mol|
|  sn= 9 | S(rot)=       0.01219632 Eh      7.65 kcal/mol|
|  sn=10 | S(rot)=       0.01209684 Eh      7.59 kcal/mol|
|  sn=11 | S(rot)=       0.01200685 Eh      7.53 kcal/mol|
|  sn=12 | S(rot)=       0.01192469 Eh      7.48 kcal/mol|
 --------------------------------------------------------

-------------------
GIBBS FREE ENERGY
-------------------

The Gibbs free energy is G = H - T*S

Total enthalpy                    ...  -1223.92787432 Eh
Total entropy correction          ...     -0.04485684 Eh    -28.15 kcal/mol
-----------------------------------------------------------------------

                             ****ORCA TERMINATED NORMALLY****
TOTAL RUN TIME: 0 days 0 hours 21 minutes 53 seconds 85 msec
