                         Program Version 5.0.4 -  RELEASE  -
|  1> # ORCA 5.0.4 - /users/bwb16179/postgrad/2024_06/pKa_Reviewer_Comments/Gas_Z=0/4_deprot.inp # write input file
|  2> # Basic Mode
|  3> #
|  4> ! Opt Freq wB97X Def2-TZVP D4 SlowConv TightSCF Defgrid2 Def2/J RIJCOSX
|  5>
|  6> %PAL NPROCS 4 END
|  7>
|  8> %maxcore 4500
|  9>
| 10> %geom
| 11> Maxiter 150
| 12> END
| 13>
| 14> * xyzfile 0 1 4_deprot.xyz
| 15>
| 16>                          ****END OF INPUT****
 Total Charge           Charge          ....    0
 Multiplicity           Mult            ....    1
 Number of Electrons    NEL             ....   84
Dispersion correction           -0.004103110
FINAL SINGLE POINT ENERGY      -462.112058365749
Dispersion correction            ... Starting D4
Dispersion correction           -0.004112103
FINAL SINGLE POINT ENERGY      -462.113175332197
Dispersion correction            ... Starting D4
Dispersion correction           -0.004112160
FINAL SINGLE POINT ENERGY      -462.113188806329
Dispersion correction            ... Starting D4
Dispersion correction           -0.004112090
FINAL SINGLE POINT ENERGY      -462.113192395340
Dispersion correction            ... Starting D4
                    ***********************HURRAY********************

CARTESIAN COORDINATES (ANGSTROEM)
---------------------------------
  C     -0.033156    2.425861    0.556730
  C      0.008851   -2.455853    0.539782
  N     -0.013163    1.044766    0.086695
  N      0.003563   -1.071388    0.079326
  C      0.003254    0.664439   -1.242143
  C      0.014028   -0.681634   -1.246790
  C     -0.013704   -0.016338    0.930736
  C      1.225008    3.168283    0.128008
  C     -1.303021    3.136603    0.109003
  C     -1.248840   -3.186394    0.089607
  C      1.279483   -3.172237    0.103503
  H      0.006336    1.363581   -2.062044
  H      0.028661   -1.374820   -2.071616
  H     -0.040302    2.332221    1.643373
  H      0.002079   -2.369846    1.627059
  H      1.278587    3.264214   -0.959558
  H     -1.339917    3.236010   -0.978976
  H     -1.289198   -3.273609   -0.999280
  H      1.330646   -3.263297   -0.984611
  H      1.231992    4.173649    0.552306
  H     -1.344721    4.139426    0.537330
  H     -1.268289   -4.194860    0.506112
  H      1.307777   -4.178778    0.524103
  H      2.116965    2.642358    0.470577
  H     -2.186151    2.584821    0.433293
  H     -2.141281   -2.656581    0.424827
  H      2.162322   -2.630087    0.444390

 Multiplicity           Mult            ....    1
 Number of Electrons    NEL             ....   84
 Basis Dimension        Dim             ....  437

ORBITAL ENERGIES
----------------

  NO   OCC          E(Eh)            E(eV)
   0   2.0000     -14.428063      -392.6076
   1   2.0000     -14.428036      -392.6068
   2   2.0000     -10.293966      -280.1131
   3   2.0000     -10.293959      -280.1129
   4   2.0000     -10.277414      -279.6626
   5   2.0000     -10.276641      -279.6416
   6   2.0000     -10.252527      -278.9854
   7   2.0000     -10.247573      -278.8506
   8   2.0000     -10.247570      -278.8505
   9   2.0000     -10.247477      -278.8480
  10   2.0000     -10.247472      -278.8479
  11   2.0000      -1.151779       -31.3415
  12   2.0000      -1.047044       -28.4915
  13   2.0000      -0.943779       -25.6815
  14   2.0000      -0.893214       -24.3056
  15   2.0000      -0.872196       -23.7337
  16   2.0000      -0.822086       -22.3701
  17   2.0000      -0.821783       -22.3618
  18   2.0000      -0.765165       -20.8212
  19   2.0000      -0.752065       -20.4647
  20   2.0000      -0.678739       -18.4694
  21   2.0000      -0.667622       -18.1669
  22   2.0000      -0.627794       -17.0831
  23   2.0000      -0.589566       -16.0429
  24   2.0000      -0.575558       -15.6617
  25   2.0000      -0.563553       -15.3350
  26   2.0000      -0.561806       -15.2875
  27   2.0000      -0.539147       -14.6709
  28   2.0000      -0.536729       -14.6051
  29   2.0000      -0.531220       -14.4552
  30   2.0000      -0.506625       -13.7860
  31   2.0000      -0.500595       -13.6219
  32   2.0000      -0.489662       -13.3244
  33   2.0000      -0.488598       -13.2954
  34   2.0000      -0.467732       -12.7276
  35   2.0000      -0.460586       -12.5332
  36   2.0000      -0.448864       -12.2142
  37   2.0000      -0.445945       -12.1348
  38   2.0000      -0.436719       -11.8837
  39   2.0000      -0.366082        -9.9616
  40   2.0000      -0.321171        -8.7395
  41   2.0000      -0.311264        -8.4699
  42   0.0000       0.115193         3.1346
  43   0.0000       0.115965         3.1556
  44   0.0000       0.118713         3.2303
  45   0.0000       0.126880         3.4526
  46   0.0000       0.148088         4.0297

MULLIKEN ATOMIC CHARGES
-----------------------
   0 C :   -0.057721
   1 C :   -0.057765
   2 N :    0.007226
   3 N :    0.007276
   4 C :   -0.151274
   5 C :   -0.151162
   6 C :   -0.244418
   7 C :   -0.340161
   8 C :   -0.340303
   9 C :   -0.340174
  10 C :   -0.340259
  11 H :    0.166776
  12 H :    0.166816
  13 H :    0.128610
  14 H :    0.128627
  15 H :    0.102353
  16 H :    0.102324
  17 H :    0.102467
  18 H :    0.102264
  19 H :    0.118649
  20 H :    0.118681
  21 H :    0.118506
  22 H :    0.118757
  23 H :    0.133448
  24 H :    0.133502
  25 H :    0.133471
  26 H :    0.133485
Sum of atomic charges:   -0.0000000

LOEWDIN ATOMIC CHARGES
----------------------
   0 C :   -0.308962
   1 C :   -0.308943
   2 N :    0.223483
   3 N :    0.223493
   4 C :   -0.221639
   5 C :   -0.221681
   6 C :   -0.340921
   7 C :   -0.276820
   8 C :   -0.276831
   9 C :   -0.276796
  10 C :   -0.276845
  11 H :    0.137601
  12 H :    0.137606
  13 H :    0.157218
  14 H :    0.157220
  15 H :    0.118126
  16 H :    0.118155
  17 H :    0.118168
  18 H :    0.118124
  19 H :    0.123985
  20 H :    0.123915
  21 H :    0.123921
  22 H :    0.123967
  23 H :    0.126087
  24 H :    0.126145
  25 H :    0.126105
  26 H :    0.126119

  Mayer bond orders larger than 0.100000
B(  0-C ,  2-N ) :   0.8723 B(  0-C ,  7-C ) :   0.9715 B(  0-C ,  8-C ) :   0.9717
B(  0-C , 13-H ) :   0.9795 B(  1-C ,  3-N ) :   0.8723 B(  1-C ,  9-C ) :   0.9718
B(  1-C , 10-C ) :   0.9715 B(  1-C , 14-H ) :   0.9795 B(  2-N ,  4-C ) :   1.0985
B(  2-N ,  6-C ) :   1.1676 B(  3-N ,  5-C ) :   1.0985 B(  3-N ,  6-C ) :   1.1675
B(  4-C ,  5-C ) :   1.7974 B(  4-C , 11-H ) :   0.9389 B(  5-C , 12-H ) :   0.9389
B(  7-C , 15-H ) :   0.9652 B(  7-C , 19-H ) :   0.9819 B(  7-C , 23-H ) :   0.9831
B(  8-C , 16-H ) :   0.9651 B(  8-C , 20-H ) :   0.9819 B(  8-C , 24-H ) :   0.9831
B(  9-C , 17-H ) :   0.9651 B(  9-C , 21-H ) :   0.9819 B(  9-C , 25-H ) :   0.9830
B( 10-C , 18-H ) :   0.9652 B( 10-C , 22-H ) :   0.9818 B( 10-C , 26-H ) :   0.9831

Dispersion correction           -0.004111994
FINAL SINGLE POINT ENERGY      -462.113192793171

DIPOLE MOMENT
-------------
                                X             Y             Z
Electronic contribution:      0.03522      -0.00009       0.04961
Nuclear contribution   :     -0.02727       0.00319      -0.93987
                        -----------------------------------------
Total Dipole Moment    :      0.00795       0.00310      -0.89026
                        -----------------------------------------
Magnitude (a.u.)       :      0.89030
Magnitude (Debye)      :      2.26297

Dispersion correction in the Hessian             ... Starting D4

VIBRATIONAL FREQUENCIES
-----------------------

Scaling factor for frequencies =  1.000000000  (already applied!)

   0:         0.00 cm**-1
   1:         0.00 cm**-1
   2:         0.00 cm**-1
   3:         0.00 cm**-1
   4:         0.00 cm**-1
   5:         0.00 cm**-1
   6:        26.22 cm**-1
   7:        35.51 cm**-1
   8:       116.18 cm**-1
   9:       146.98 cm**-1
  10:       161.01 cm**-1
  11:       221.69 cm**-1
  12:       223.37 cm**-1
  13:       246.17 cm**-1
  14:       257.84 cm**-1
  15:       271.03 cm**-1
  16:       299.79 cm**-1
  17:       355.28 cm**-1
  18:       403.82 cm**-1
  19:       444.21 cm**-1
  20:       459.21 cm**-1
  21:       572.78 cm**-1
  22:       635.40 cm**-1
  23:       662.97 cm**-1
  24:       679.08 cm**-1
  25:       689.40 cm**-1
  26:       740.46 cm**-1
  27:       855.44 cm**-1
  28:       907.02 cm**-1
  29:       910.47 cm**-1
  30:       942.95 cm**-1
  31:       943.35 cm**-1
  32:       962.21 cm**-1
  33:       962.34 cm**-1
  34:      1023.06 cm**-1
  35:      1025.63 cm**-1
  36:      1077.91 cm**-1
  37:      1102.36 cm**-1
  38:      1118.84 cm**-1
  39:      1171.12 cm**-1
  40:      1171.60 cm**-1
  41:      1199.05 cm**-1
  42:      1203.56 cm**-1
  43:      1259.20 cm**-1
  44:      1305.35 cm**-1
  45:      1325.92 cm**-1
  46:      1374.48 cm**-1
  47:      1375.03 cm**-1
  48:      1404.24 cm**-1
  49:      1414.16 cm**-1
  50:      1414.47 cm**-1
  51:      1414.92 cm**-1
  52:      1425.46 cm**-1
  53:      1432.34 cm**-1
  54:      1444.78 cm**-1
  55:      1474.30 cm**-1
  56:      1487.54 cm**-1
  57:      1488.22 cm**-1
  58:      1491.51 cm**-1
  59:      1491.64 cm**-1
  60:      1502.09 cm**-1
  61:      1502.58 cm**-1
  62:      1511.72 cm**-1
  63:      1513.01 cm**-1
  64:      1642.79 cm**-1
  65:      3063.81 cm**-1
  66:      3063.85 cm**-1
  67:      3066.66 cm**-1
  68:      3066.90 cm**-1
  69:      3117.64 cm**-1
  70:      3117.95 cm**-1
  71:      3137.45 cm**-1
  72:      3137.49 cm**-1
  73:      3148.42 cm**-1
  74:      3148.74 cm**-1
  75:      3155.93 cm**-1
  76:      3156.03 cm**-1
  77:      3158.29 cm**-1
  78:      3158.44 cm**-1
  79:      3281.16 cm**-1
  80:      3303.08 cm**-1

IR SPECTRUM
-----------

 Mode   freq       eps      Int      T**2         TX        TY        TZ
       cm**-1   L/(mol*cm) km/mol    a.u.
----------------------------------------------------------------------------
  6:     26.22   0.000004    0.02  0.000044  (-0.006607  0.000112 -0.000171)
  7:     35.51   0.000000    0.00  0.000000  (-0.000332  0.000040 -0.000085)
  8:    116.18   0.001922    9.71  0.005162  ( 0.071839  0.000523  0.000686)
  9:    146.98   0.000001    0.01  0.000002  ( 0.001452  0.000076  0.000454)
 10:    161.01   0.000260    1.32  0.000505  (-0.000136 -0.000088  0.022468)
 11:    221.69   0.000023    0.11  0.000032  ( 0.005646  0.000254 -0.000127)
 12:    223.37   0.000029    0.15  0.000041  ( 0.006342  0.000583  0.000417)
 13:    246.17   0.000054    0.27  0.000068  ( 0.000101  0.008232 -0.000353)
 14:    257.84   0.000008    0.04  0.000010  (-0.000384 -0.001483 -0.002693)
 15:    271.03   0.000001    0.00  0.000001  (-0.000175 -0.000594  0.000720)
 16:    299.79   0.000663    3.35  0.000690  (-0.000871  0.026262  0.000098)
 17:    355.28   0.000361    1.82  0.000317  ( 0.000632  0.017788  0.000063)
 18:    403.82   0.002562   12.95  0.001980  (-0.044489 -0.000319 -0.000403)
 19:    444.21   0.000000    0.00  0.000000  ( 0.000031  0.000216  0.000036)
 20:    459.21   0.000001    0.00  0.000000  (-0.000003 -0.000054 -0.000606)
 21:    572.78   0.002258   11.41  0.001230  ( 0.000425 -0.035074 -0.000120)
 22:    635.40   0.000154    0.78  0.000076  (-0.000329 -0.000032  0.008688)
 23:    662.97   0.000688    3.48  0.000324  ( 0.017988  0.000384  0.000245)
 24:    679.08   0.000000    0.00  0.000000  (-0.000239 -0.000081 -0.000010)
 25:    689.40   0.002217   11.20  0.001003  ( 0.000095 -0.031676 -0.000110)
 26:    740.46   0.009505   48.03  0.004006  ( 0.063285  0.000324  0.000835)
 27:    855.44   0.000000    0.00  0.000000  (-0.000318 -0.000016 -0.000116)
 28:    907.02   0.002010   10.16  0.000691  (-0.000165  0.026294 -0.000139)
 29:    910.47   0.000161    0.81  0.000055  (-0.000005 -0.000836 -0.007378)
 30:    942.95   0.000051    0.26  0.000017  ( 0.004118  0.000011  0.000074)
 31:    943.35   0.000097    0.49  0.000032  ( 0.005660 -0.000347 -0.000074)
 32:    962.21   0.000011    0.06  0.000004  ( 0.001878 -0.000386 -0.000144)
 33:    962.34   0.000006    0.03  0.000002  ( 0.001445 -0.000112  0.000074)
 34:   1023.06   0.002132   10.78  0.000650  ( 0.000126 -0.025502 -0.000072)
 35:   1025.63   0.000048    0.24  0.000014  ( 0.000016  0.000175  0.003801)
 36:   1077.91   0.000166    0.84  0.000048  ( 0.000161 -0.006923  0.000049)
 37:   1102.36   0.000651    3.29  0.000184  ( 0.000249 -0.000009 -0.013575)
 38:   1118.84   0.001795    9.07  0.000501  ( 0.000445  0.000082 -0.022373)
 39:   1171.12   0.000005    0.02  0.000001  (-0.001113  0.000171 -0.000016)
 40:   1171.60   0.002513   12.70  0.000669  (-0.025869 -0.000185 -0.000231)
 41:   1199.05   0.000070    0.35  0.000018  ( 0.000048  0.000071 -0.004266)
 42:   1203.56   0.000019    0.10  0.000005  ( 0.000027  0.002245  0.000092)
 43:   1259.20   0.022816  115.30  0.005654  (-0.000547  0.075193  0.000248)
 44:   1305.35   0.001402    7.09  0.000335  (-0.000144  0.018309  0.000055)
 45:   1325.92   0.000446    2.26  0.000105  (-0.000191 -0.000021  0.010249)
 46:   1374.48   0.000000    0.00  0.000000  (-0.000059  0.000028  0.000025)
 47:   1375.03   0.000179    0.90  0.000041  (-0.006364  0.000107 -0.000054)
 48:   1404.24   0.000831    4.20  0.000185  ( 0.000233  0.000134 -0.013584)
 49:   1414.16   0.000292    1.47  0.000064  ( 0.003462 -0.007230 -0.000260)
 50:   1414.47   0.004565   23.07  0.001007  ( 0.027204 -0.016341  0.000170)
 51:   1414.92   0.005391   27.24  0.001189  (-0.029451 -0.017933 -0.000185)
 52:   1425.46   0.000124    0.63  0.000027  ( 0.000896  0.000371  0.005113)
 53:   1432.34   0.010589   53.51  0.002307  (-0.001399  0.048012  0.000090)
 54:   1444.78   0.002631   13.30  0.000568  (-0.000193  0.000030  0.023838)
 55:   1474.30   0.015025   75.93  0.003180  (-0.000500  0.056392  0.000118)
 56:   1487.54   0.000016    0.08  0.000003  ( 0.001666  0.000298 -0.000693)
 57:   1488.22   0.000066    0.34  0.000014  ( 0.003330 -0.001176  0.001213)
 58:   1491.51   0.000269    1.36  0.000056  (-0.007479 -0.000007  0.000506)
 59:   1491.64   0.000343    1.73  0.000072  (-0.008439  0.000373 -0.000644)
 60:   1502.09   0.001012    5.11  0.000210  (-0.000278 -0.008208 -0.011950)
 61:   1502.58   0.003732   18.86  0.000775  ( 0.000440  0.003372 -0.027631)
 62:   1511.72   0.000024    0.12  0.000005  (-0.000200 -0.000909 -0.002036)
 63:   1513.01   0.001803    9.11  0.000372  (-0.000298 -0.000220  0.019278)
 64:   1642.79   0.000073    0.37  0.000014  ( 0.000036  0.000021 -0.003728)
 65:   3063.81   0.000755    3.81  0.000077  ( 0.008743 -0.000530  0.000395)
 66:   3063.85   0.005283   26.70  0.000538  ( 0.023192  0.000181  0.000465)
 67:   3066.66   0.005373   27.15  0.000547  ( 0.000088  0.023374 -0.000651)
 68:   3066.90   0.002667   13.48  0.000271  ( 0.000666 -0.000987 -0.016432)
 69:   3117.64   0.000369    1.86  0.000037  ( 0.000092  0.000033 -0.006076)
 70:   3117.95   0.000017    0.09  0.000002  ( 0.000050 -0.001311 -0.000103)
 71:   3137.45   0.000726    3.67  0.000072  (-0.008496 -0.000027  0.000161)
 72:   3137.49   0.000594    3.00  0.000059  ( 0.007684  0.000182  0.000026)
 73:   3148.42   0.004524   22.86  0.000448  ( 0.000361 -0.021152 -0.000959)
 74:   3148.74   0.014722   74.40  0.001459  ( 0.000226  0.000654 -0.038191)
 75:   3155.93   0.000046    0.23  0.000005  (-0.002091  0.000028 -0.000357)
 76:   3156.03   0.004352   21.99  0.000430  (-0.020743  0.000027 -0.000120)
 77:   3158.29   0.011736   59.31  0.001160  (-0.000157  0.034052 -0.000111)
 78:   3158.44   0.000164    0.83  0.000016  (-0.000041 -0.002994 -0.002690)
 79:   3281.16   0.000027    0.14  0.000003  ( 0.000019 -0.001608 -0.000004)
 80:   3303.08   0.000179    0.91  0.000017  ( 0.000034  0.000011 -0.004115)

--------------------------
THERMOCHEMISTRY AT 298.15K
--------------------------

Temperature         ... 298.15 K
Pressure            ... 1.00 atm
Total Mass          ... 152.24 AMU

Throughout the following assumptions are being made:
  (1) The electronic state is orbitally nondegenerate
  (2) There are no thermally accessible electronically excited states
  (3) Hindered rotations indicated by low frequency modes are not
      treated as such but are treated as vibrations and this may
      cause some error
  (4) All equations used are the standard statistical mechanics
      equations for an ideal gas
  (5) All vibrations are strictly harmonic

freq.      26.22  E(vib)   ...       0.56
freq.      35.51  E(vib)   ...       0.54
freq.     116.18  E(vib)   ...       0.44
freq.     146.98  E(vib)   ...       0.41
freq.     161.01  E(vib)   ...       0.39
freq.     221.69  E(vib)   ...       0.33
freq.     223.37  E(vib)   ...       0.33
freq.     246.17  E(vib)   ...       0.31
freq.     257.84  E(vib)   ...       0.30
freq.     271.03  E(vib)   ...       0.29
freq.     299.79  E(vib)   ...       0.26
freq.     355.28  E(vib)   ...       0.22
freq.     403.82  E(vib)   ...       0.19
freq.     444.21  E(vib)   ...       0.17
freq.     459.21  E(vib)   ...       0.16
freq.     572.78  E(vib)   ...       0.11
freq.     635.40  E(vib)   ...       0.09
freq.     662.97  E(vib)   ...       0.08
freq.     679.08  E(vib)   ...       0.08
freq.     689.40  E(vib)   ...       0.07
freq.     740.46  E(vib)   ...       0.06
freq.     855.44  E(vib)   ...       0.04
freq.     907.02  E(vib)   ...       0.03
freq.     910.47  E(vib)   ...       0.03
freq.     942.95  E(vib)   ...       0.03
freq.     943.35  E(vib)   ...       0.03
freq.     962.21  E(vib)   ...       0.03
freq.     962.34  E(vib)   ...       0.03
freq.    1023.06  E(vib)   ...       0.02
freq.    1025.63  E(vib)   ...       0.02
freq.    1077.91  E(vib)   ...       0.02
freq.    1102.36  E(vib)   ...       0.02
freq.    1118.84  E(vib)   ...       0.01
freq.    1171.12  E(vib)   ...       0.01
freq.    1171.60  E(vib)   ...       0.01
freq.    1199.05  E(vib)   ...       0.01
freq.    1203.56  E(vib)   ...       0.01
freq.    1259.20  E(vib)   ...       0.01
freq.    1305.35  E(vib)   ...       0.01
freq.    1325.92  E(vib)   ...       0.01
freq.    1374.48  E(vib)   ...       0.01
freq.    1375.03  E(vib)   ...       0.01
freq.    1404.24  E(vib)   ...       0.00
freq.    1414.16  E(vib)   ...       0.00
freq.    1414.47  E(vib)   ...       0.00
freq.    1414.92  E(vib)   ...       0.00
freq.    1425.46  E(vib)   ...       0.00
freq.    1432.34  E(vib)   ...       0.00
freq.    1444.78  E(vib)   ...       0.00
freq.    1474.30  E(vib)   ...       0.00
freq.    1487.54  E(vib)   ...       0.00
freq.    1488.22  E(vib)   ...       0.00
freq.    1491.51  E(vib)   ...       0.00
freq.    1491.64  E(vib)   ...       0.00
freq.    1502.09  E(vib)   ...       0.00
freq.    1502.58  E(vib)   ...       0.00
freq.    1511.72  E(vib)   ...       0.00
freq.    1513.01  E(vib)   ...       0.00
freq.    1642.79  E(vib)   ...       0.00
freq.    3063.81  E(vib)   ...       0.00
freq.    3063.85  E(vib)   ...       0.00
freq.    3066.66  E(vib)   ...       0.00
freq.    3066.90  E(vib)   ...       0.00
freq.    3117.64  E(vib)   ...       0.00
freq.    3117.95  E(vib)   ...       0.00
freq.    3137.45  E(vib)   ...       0.00
freq.    3137.49  E(vib)   ...       0.00
freq.    3148.42  E(vib)   ...       0.00
freq.    3148.74  E(vib)   ...       0.00
freq.    3155.93  E(vib)   ...       0.00
freq.    3156.03  E(vib)   ...       0.00
freq.    3158.29  E(vib)   ...       0.00
freq.    3158.44  E(vib)   ...       0.00
freq.    3281.16  E(vib)   ...       0.00
freq.    3303.08  E(vib)   ...       0.00

------------
INNER ENERGY
------------

The inner energy is: U= E(el) + E(ZPE) + E(vib) + E(rot) + E(trans)
    E(el)   - is the total energy from the electronic structure calculation
              = E(kin-el) + E(nuc-el) + E(el-el) + E(nuc-nuc)
    E(ZPE)  - the the zero temperature vibrational energy from the frequency calculation
    E(vib)  - the the finite temperature correction to E(ZPE) due to population
              of excited vibrational states
    E(rot)  - is the rotational thermal energy
    E(trans)- is the translational thermal energy

Summary of contributions to the inner energy U:
Electronic energy                ...   -462.11319279 Eh
Zero point energy                ...      0.24194797 Eh     151.82 kcal/mol
Thermal vibrational correction   ...      0.00929864 Eh       5.83 kcal/mol
Thermal rotational correction    ...      0.00141627 Eh       0.89 kcal/mol
Thermal translational correction ...      0.00141627 Eh       0.89 kcal/mol
-----------------------------------------------------------------------
Total thermal energy                   -461.85911364 Eh

Summary of corrections to the electronic energy:
(perhaps to be used in another calculation)
Total thermal correction                  0.01213118 Eh       7.61 kcal/mol
Non-thermal (ZPE) correction              0.24194797 Eh     151.82 kcal/mol
-----------------------------------------------------------------------
Total correction                          0.25407915 Eh     159.44 kcal/mol

--------
ENTHALPY
--------

The enthalpy is H = U + kB*T
                kB is Boltzmann's constant
Total free energy                 ...   -461.85911364 Eh
Thermal Enthalpy correction       ...      0.00094421 Eh       0.59 kcal/mol
-----------------------------------------------------------------------
Total Enthalpy                    ...   -461.85816943 Eh

Note: Only C1 symmetry has been detected, increase convergence thresholds
      if your molecule has a higher symmetry. Symmetry factor of 1.0 is
      used for the rotational entropy correction.

Note: Rotational entropy computed according to Herzberg
Infrared and Raman Spectra, Chapter V,1, Van Nostrand Reinhold, 1945
Point Group:  C1, Symmetry Number:   1
Rotational constants in cm-1:     0.091398     0.018770     0.018091

Vibrational entropy computed according to the QRRHO of S. Grimme
Chem.Eur.J. 2012 18 9955

-------
ENTROPY
-------

The entropy contributions are T*S = T*(S(el)+S(vib)+S(rot)+S(trans))
     S(el)   - electronic entropy
     S(vib)  - vibrational entropy
     S(rot)  - rotational entropy
     S(trans)- translational entropy
The entropies will be listed as multiplied by the temperature to get
units of energy

                             ****ORCA TERMINATED NORMALLY****
TOTAL RUN TIME: 0 days 0 hours 45 minutes 27 seconds 431 msec
