                         Program Version 5.0.4 -  RELEASE  -
|  1> # ORCA 5.0.4 - /users/bwb16179/postgrad/2024_06/pKa_Reviewer_Comments/Gas_Z=0/5_deprot.inp # write input file
|  2> # Basic Mode
|  3> #
|  4> ! Opt Freq wB97X Def2-TZVP D4 SlowConv TightSCF Defgrid2 Def2/J RIJCOSX
|  5>
|  6> %PAL NPROCS 4 END
|  7>
|  8> %maxcore 4500
|  9>
| 10> %geom
| 11> Maxiter 150
| 12> END
| 13>
| 14> * xyzfile 0 1 5_deprot.xyz
| 15>
| 16>                          ****END OF INPUT****
 Total Charge           Charge          ....    0
 Multiplicity           Mult            ....    1
 Number of Electrons    NEL             ....  100
Dispersion correction           -0.005752037
FINAL SINGLE POINT ENERGY      -540.749694055256
Dispersion correction            ... Starting D4
Dispersion correction           -0.005761263
FINAL SINGLE POINT ENERGY      -540.751015983783
Dispersion correction            ... Starting D4
Dispersion correction           -0.005760943
FINAL SINGLE POINT ENERGY      -540.751025998160
Dispersion correction            ... Starting D4
                    ***********************HURRAY********************

CARTESIAN COORDINATES (ANGSTROEM)
---------------------------------
  C      0.964069    0.414759   -1.361091
  C      0.710245   -0.901514   -1.255368
  N      0.297332    1.024851   -0.314265
  N     -0.110486   -1.052815   -0.150503
  C     -0.370572    0.129075    0.455338
  H      1.549562    0.941910   -2.093135
  H      1.039765   -1.717197   -1.875447
  C      0.299663    2.471177    0.000820
  C     -0.552654   -2.365256    0.362672
  C     -1.144519    2.965618    0.027032
  C     -1.045225   -3.223838   -0.801918
  C      0.633627   -3.038866    1.052717
  C      1.085622    3.237277   -1.057386
  H     -1.613866    2.833336   -0.950239
  H     -0.247061   -3.460514   -1.507376
  H      1.465707   -3.177873    0.358832
  H      0.650333    3.114496   -2.051322
  H     -1.718951    2.403562    0.762361
  H     -1.845817   -2.716217   -1.342973
  H      0.979347   -2.426037    1.886768
  H      2.132047    2.926833   -1.088916
  H     -1.172779    4.026631    0.283926
  H     -1.434658   -4.168062   -0.418209
  H      0.342835   -4.018384    1.437377
  H      1.062989    4.299670   -0.812599
  C      0.950803    2.666169    1.368677
  C     -1.687802   -2.169496    1.359401
  H      0.958716    3.725129    1.635304
  H     -2.011170   -3.147971    1.720470
  H      0.398286    2.111188    2.126385
  H     -2.535536   -1.668174    0.891072
  H     -1.372011   -1.559361    2.202908
  H      1.980921    2.303237    1.358617

 Multiplicity           Mult            ....    1
 Number of Electrons    NEL             ....  100
 Basis Dimension        Dim             ....  523

ORBITAL ENERGIES
----------------

  NO   OCC          E(Eh)            E(eV)
   0   2.0000     -14.427690      -392.5974
   1   2.0000     -14.426250      -392.5582
   2   2.0000     -10.303993      -280.3859
   3   2.0000     -10.303591      -280.3750
   4   2.0000     -10.274627      -279.5868
   5   2.0000     -10.272058      -279.5169
   6   2.0000     -10.250207      -278.9223
   7   2.0000     -10.248315      -278.8708
   8   2.0000     -10.247565      -278.8504
   9   2.0000     -10.243478      -278.7392
  10   2.0000     -10.236172      -278.5404
  11   2.0000     -10.235202      -278.5140
  12   2.0000     -10.232764      -278.4477
  13   2.0000      -1.148894       -31.2630
  14   2.0000      -1.047358       -28.5001
  15   2.0000      -0.958743       -26.0887
  16   2.0000      -0.908170       -24.7125
  17   2.0000      -0.872154       -23.7325
  18   2.0000      -0.824334       -22.4313
  19   2.0000      -0.820807       -22.3353
  20   2.0000      -0.813504       -22.1366
  21   2.0000      -0.812013       -22.0960
  22   2.0000      -0.758638       -20.6436
  23   2.0000      -0.722561       -19.6619
  24   2.0000      -0.659317       -17.9409
  25   2.0000      -0.653293       -17.7770
  26   2.0000      -0.621366       -16.9082
  27   2.0000      -0.582276       -15.8445
  28   2.0000      -0.579714       -15.7748
  29   2.0000      -0.562096       -15.2954
  30   2.0000      -0.558838       -15.2067
  31   2.0000      -0.554291       -15.0830
  32   2.0000      -0.535386       -14.5686
  33   2.0000      -0.529530       -14.4092
  34   2.0000      -0.524583       -14.2746
  35   2.0000      -0.505307       -13.7501
  36   2.0000      -0.499345       -13.5879
  37   2.0000      -0.486840       -13.2476
  38   2.0000      -0.483002       -13.1431
  39   2.0000      -0.472546       -12.8586
  40   2.0000      -0.468554       -12.7500
  41   2.0000      -0.468349       -12.7444
  42   2.0000      -0.461427       -12.5561
  43   2.0000      -0.447353       -12.1731
  44   2.0000      -0.438565       -11.9340
  45   2.0000      -0.435336       -11.8461
  46   2.0000      -0.430878       -11.7248
  47   2.0000      -0.364355        -9.9146
  48   2.0000      -0.317279        -8.6336
  49   2.0000      -0.305237        -8.3059
  50   0.0000       0.109291         2.9740
  51   0.0000       0.116179         3.1614
  52   0.0000       0.120898         3.2898
  53   0.0000       0.127065         3.4576
  54   0.0000       0.148245         4.0340

MULLIKEN ATOMIC CHARGES
-----------------------
   0 C :   -0.155923
   1 C :   -0.140455
   2 N :    0.043615
   3 N :    0.043601
   4 C :   -0.271067
   5 H :    0.163405
   6 H :    0.159549
   7 C :    0.057367
   8 C :    0.009039
   9 C :   -0.365037
  10 C :   -0.353396
  11 C :   -0.364317
  12 C :   -0.396143
  13 H :    0.111912
  14 H :    0.107598
  15 H :    0.113837
  16 H :    0.135314
  17 H :    0.153512
  18 H :    0.133483
  19 H :    0.133668
  20 H :    0.131377
  21 H :    0.109776
  22 H :    0.122776
  23 H :    0.117445
  24 H :    0.131226
  25 C :   -0.368952
  26 C :   -0.310191
  27 H :    0.110683
  28 H :    0.112111
  29 H :    0.150286
  30 H :    0.119830
  31 H :    0.141360
  32 H :    0.112709
Sum of atomic charges:    0.0000000

LOEWDIN ATOMIC CHARGES
----------------------
   0 C :   -0.224556
   1 C :   -0.224319
   2 N :    0.246559
   3 N :    0.246531
   4 C :   -0.321985
   5 H :    0.139878
   6 H :    0.137045
   7 C :   -0.356407
   8 C :   -0.358408
   9 C :   -0.255454
  10 C :   -0.254389
  11 C :   -0.251772
  12 C :   -0.260838
  13 H :    0.122833
  14 H :    0.117738
  15 H :    0.120879
  16 H :    0.124031
  17 H :    0.130875
  18 H :    0.127800
  19 H :    0.128476
  20 H :    0.123145
  21 H :    0.122028
  22 H :    0.127198
  23 H :    0.124493
  24 H :    0.129981
  25 C :   -0.254880
  26 C :   -0.259366
  27 H :    0.122114
  28 H :    0.122303
  29 H :    0.130419
  30 H :    0.126634
  31 H :    0.128767
  32 H :    0.122648

  Mayer bond orders larger than 0.100000
B(  0-C ,  1-C ) :   1.8049 B(  0-C ,  2-N ) :   1.1167 B(  0-C ,  5-H ) :   0.9410
B(  1-C ,  3-N ) :   1.0861 B(  1-C ,  6-H ) :   0.9327 B(  2-N ,  4-C ) :   1.1369
B(  2-N ,  7-C ) :   0.9036 B(  3-N ,  4-C ) :   1.1593 B(  3-N ,  8-C ) :   0.8830
B(  7-C ,  9-C ) :   0.9711 B(  7-C , 12-C ) :   0.9236 B(  7-C , 25-C ) :   0.9709
B(  8-C , 10-C ) :   0.9586 B(  8-C , 11-C ) :   0.9860 B(  8-C , 26-C ) :   0.9744
B(  9-C , 13-H ) :   0.9733 B(  9-C , 17-H ) :   0.9718 B(  9-C , 21-H ) :   0.9799
B( 10-C , 14-H ) :   0.9705 B( 10-C , 18-H ) :   0.9821 B( 10-C , 22-H ) :   0.9808
B( 11-C , 15-H ) :   0.9645 B( 11-C , 19-H ) :   0.9782 B( 11-C , 23-H ) :   0.9829
B( 12-C , 16-H ) :   0.9820 B( 12-C , 20-H ) :   0.9797 B( 12-C , 24-H ) :   0.9822
B( 25-C , 27-H ) :   0.9803 B( 25-C , 29-H ) :   0.9733 B( 25-C , 32-H ) :   0.9726
B( 26-C , 28-H ) :   0.9784 B( 26-C , 30-H ) :   0.9744 B( 26-C , 31-H ) :   0.9711

Dispersion correction           -0.005760612
FINAL SINGLE POINT ENERGY      -540.751028205137

DIPOLE MOMENT
-------------
                                X             Y             Z
Electronic contribution:      1.69281      -0.46995      -3.21673
Nuclear contribution   :     -1.23474       0.33087       2.58948
                        -----------------------------------------
Total Dipole Moment    :      0.45807      -0.13907      -0.62726
                        -----------------------------------------
Magnitude (a.u.)       :      0.78907
Magnitude (Debye)      :      2.00564

Dispersion correction in the Hessian             ... Starting D4

VIBRATIONAL FREQUENCIES
-----------------------

Scaling factor for frequencies =  1.000000000  (already applied!)

   0:         0.00 cm**-1
   1:         0.00 cm**-1
   2:         0.00 cm**-1
   3:         0.00 cm**-1
   4:         0.00 cm**-1
   5:         0.00 cm**-1
   6:        12.31 cm**-1
   7:        34.01 cm**-1
   8:        99.89 cm**-1
   9:       148.94 cm**-1
  10:       173.37 cm**-1
  11:       226.23 cm**-1
  12:       247.97 cm**-1
  13:       271.91 cm**-1
  14:       280.82 cm**-1
  15:       285.52 cm**-1
  16:       298.58 cm**-1
  17:       312.61 cm**-1
  18:       342.16 cm**-1
  19:       344.57 cm**-1
  20:       350.10 cm**-1
  21:       365.69 cm**-1
  22:       373.51 cm**-1
  23:       414.80 cm**-1
  24:       450.72 cm**-1
  25:       474.96 cm**-1
  26:       479.59 cm**-1
  27:       531.64 cm**-1
  28:       583.68 cm**-1
  29:       654.62 cm**-1
  30:       669.95 cm**-1
  31:       678.07 cm**-1
  32:       737.35 cm**-1
  33:       844.91 cm**-1
  34:       855.88 cm**-1
  35:       856.82 cm**-1
  36:       947.67 cm**-1
  37:       952.87 cm**-1
  38:       957.60 cm**-1
  39:       958.11 cm**-1
  40:       975.83 cm**-1
  41:       977.24 cm**-1
  42:      1010.96 cm**-1
  43:      1022.82 cm**-1
  44:      1058.69 cm**-1
  45:      1061.18 cm**-1
  46:      1062.40 cm**-1
  47:      1065.55 cm**-1
  48:      1122.13 cm**-1
  49:      1172.34 cm**-1
  50:      1232.38 cm**-1
  51:      1261.48 cm**-1
  52:      1267.71 cm**-1
  53:      1278.64 cm**-1
  54:      1280.95 cm**-1
  55:      1287.69 cm**-1
  56:      1342.18 cm**-1
  57:      1380.80 cm**-1
  58:      1391.29 cm**-1
  59:      1409.39 cm**-1
  60:      1411.69 cm**-1
  61:      1414.80 cm**-1
  62:      1419.53 cm**-1
  63:      1438.46 cm**-1
  64:      1440.46 cm**-1
  65:      1455.64 cm**-1
  66:      1474.67 cm**-1
  67:      1477.26 cm**-1
  68:      1487.10 cm**-1
  69:      1488.22 cm**-1
  70:      1494.99 cm**-1
  71:      1497.60 cm**-1
  72:      1501.74 cm**-1
  73:      1504.40 cm**-1
  74:      1511.42 cm**-1
  75:      1511.85 cm**-1
  76:      1523.14 cm**-1
  77:      1530.69 cm**-1
  78:      1643.98 cm**-1
  79:      3063.86 cm**-1
  80:      3064.97 cm**-1
  81:      3065.63 cm**-1
  82:      3071.05 cm**-1
  83:      3071.55 cm**-1
  84:      3078.86 cm**-1
  85:      3139.77 cm**-1
  86:      3141.74 cm**-1
  87:      3143.36 cm**-1
  88:      3145.18 cm**-1
  89:      3149.63 cm**-1
  90:      3151.11 cm**-1
  91:      3152.01 cm**-1
  92:      3155.28 cm**-1
  93:      3157.33 cm**-1
  94:      3165.80 cm**-1
  95:      3170.34 cm**-1
  96:      3182.28 cm**-1
  97:      3298.92 cm**-1
  98:      3322.45 cm**-1

IR SPECTRUM
-----------

 Mode   freq       eps      Int      T**2         TX        TY        TZ
       cm**-1   L/(mol*cm) km/mol    a.u.
----------------------------------------------------------------------------
  6:     12.31   0.000100    0.51  0.002536  (-0.041062  0.007400 -0.028193)
  7:     34.01   0.000142    0.72  0.001302  (-0.028721  0.004346 -0.021407)
  8:     99.89   0.001231    6.22  0.003845  (-0.050228  0.005984 -0.035862)
  9:    148.94   0.000152    0.77  0.000319  ( 0.010071 -0.001724 -0.014635)
 10:    173.37   0.000028    0.14  0.000051  (-0.005715 -0.002612 -0.003342)
 11:    226.23   0.000041    0.21  0.000057  (-0.001200  0.006446 -0.003742)
 12:    247.97   0.000002    0.01  0.000003  (-0.000742 -0.001009 -0.000978)
 13:    271.91   0.000199    1.01  0.000229  (-0.003646 -0.014117 -0.004001)
 14:    280.82   0.000076    0.39  0.000085  (-0.003009 -0.007775 -0.003907)
 15:    285.52   0.000141    0.71  0.000154  (-0.002241 -0.011616  0.003747)
 16:    298.58   0.000006    0.03  0.000006  ( 0.001000 -0.002229  0.000222)
 17:    312.61   0.000087    0.44  0.000086  (-0.000161 -0.008718  0.003217)
 18:    342.16   0.000260    1.31  0.000237  ( 0.009146 -0.002789  0.012052)
 19:    344.57   0.000050    0.25  0.000046  (-0.004887 -0.001913  0.004253)
 20:    350.10   0.000399    2.02  0.000356  (-0.017490 -0.003499 -0.006126)
 21:    365.69   0.000072    0.36  0.000061  ( 0.000391  0.007563 -0.002021)
 22:    373.51   0.000580    2.93  0.000485  ( 0.001219  0.021854 -0.002359)
 23:    414.80   0.000126    0.64  0.000095  (-0.003681 -0.009008  0.000026)
 24:    450.72   0.001046    5.28  0.000724  (-0.021936  0.002338 -0.015406)
 25:    474.96   0.000193    0.98  0.000127  ( 0.007372  0.000900 -0.008475)
 26:    479.59   0.000028    0.14  0.000018  (-0.002581 -0.003211 -0.001179)
 27:    531.64   0.001212    6.12  0.000711  ( 0.005361  0.026077 -0.001594)
 28:    583.68   0.000283    1.43  0.000152  ( 0.005689 -0.000689 -0.010894)
 29:    654.62   0.003866   19.54  0.001843  (-0.009096 -0.041891  0.002334)
 30:    669.95   0.000361    1.83  0.000168  ( 0.010718 -0.000317  0.007297)
 31:    678.07   0.000413    2.09  0.000190  (-0.009835  0.005438 -0.007987)
 32:    737.35   0.009410   47.55  0.003982  (-0.051551  0.007590 -0.035600)
 33:    844.91   0.000083    0.42  0.000031  ( 0.002133  0.001680 -0.004819)
 34:    855.88   0.000117    0.59  0.000043  ( 0.000842  0.006426  0.000818)
 35:    856.82   0.000876    4.43  0.000319  ( 0.002356  0.017680 -0.001010)
 36:    947.67   0.000083    0.42  0.000027  (-0.004509 -0.002605 -0.000430)
 37:    952.87   0.000047    0.24  0.000015  ( 0.002669 -0.001738  0.002277)
 38:    957.60   0.000057    0.29  0.000019  (-0.001315 -0.004089  0.000296)
 39:    958.11   0.000205    1.04  0.000067  (-0.004816 -0.003074  0.005854)
 40:    975.83   0.000025    0.12  0.000008  (-0.001388 -0.001067 -0.002192)
 41:    977.24   0.000006    0.03  0.000002  ( 0.000065 -0.001290  0.000566)
 42:   1010.96   0.002652   13.40  0.000819  ( 0.004481  0.028225 -0.001362)
 43:   1022.82   0.000333    1.68  0.000102  ( 0.005799  0.000629 -0.008215)
 44:   1058.69   0.000034    0.17  0.000010  ( 0.001518  0.002121 -0.001776)
 45:   1061.18   0.000113    0.57  0.000033  ( 0.000535  0.002924 -0.004940)
 46:   1062.40   0.000168    0.85  0.000049  ( 0.004289  0.004730  0.002933)
 47:   1065.55   0.000021    0.10  0.000006  ( 0.002085 -0.000375  0.001256)
 48:   1122.13   0.002582   13.05  0.000718  ( 0.015267 -0.004525 -0.021553)
 49:   1172.34   0.001410    7.13  0.000375  (-0.002169 -0.019150 -0.001984)
 50:   1232.38   0.000466    2.35  0.000118  ( 0.003874 -0.001080 -0.010090)
 51:   1261.48   0.001546    7.81  0.000382  ( 0.001096  0.019415  0.002057)
 52:   1267.71   0.001047    5.29  0.000258  (-0.001351 -0.015570  0.003664)
 53:   1278.64   0.002333   11.79  0.000569  ( 0.010014 -0.018985  0.010419)
 54:   1280.95   0.001444    7.30  0.000352  ( 0.015286 -0.001065  0.010812)
 55:   1287.69   0.029946  151.34  0.007257  (-0.017437 -0.083321  0.003312)
 56:   1342.18   0.001402    7.08  0.000326  ( 0.004122  0.017415 -0.002385)
 57:   1380.80   0.001109    5.60  0.000251  (-0.007430 -0.002483  0.013756)
 58:   1391.29   0.000687    3.47  0.000154  ( 0.006145 -0.002942 -0.010380)
 59:   1409.39   0.003530   17.84  0.000782  ( 0.020351 -0.003431  0.018859)
 60:   1411.69   0.004219   21.32  0.000933  (-0.026041  0.004103 -0.015415)
 61:   1414.80   0.002705   13.67  0.000597  ( 0.016140  0.002572 -0.018152)
 62:   1419.53   0.008602   43.47  0.001891  ( 0.021844 -0.009276 -0.036440)
 63:   1438.46   0.004561   23.05  0.000989  ( 0.006396  0.030527 -0.004077)
 64:   1440.46   0.001276    6.45  0.000277  (-0.008441 -0.012850  0.006337)
 65:   1455.64   0.012097   61.14  0.002593  (-0.006782 -0.050458 -0.001206)
 66:   1474.67   0.000161    0.81  0.000034  (-0.003661 -0.001220 -0.004384)
 67:   1477.26   0.000027    0.13  0.000006  (-0.001934  0.000914 -0.001028)
 68:   1487.10   0.000036    0.18  0.000008  (-0.000991 -0.002528 -0.000356)
 69:   1488.22   0.000111    0.56  0.000023  ( 0.000184  0.003916 -0.002802)
 70:   1494.99   0.000018    0.09  0.000004  (-0.001768  0.000177  0.000813)
 71:   1497.60   0.000329    1.66  0.000069  ( 0.004721 -0.000159 -0.006805)
 72:   1501.74   0.000887    4.48  0.000184  (-0.004745  0.001464 -0.012635)
 73:   1504.40   0.000897    4.53  0.000186  (-0.004919  0.003876  0.012117)
 74:   1511.42   0.001813    9.16  0.000374  (-0.012480  0.014094  0.004464)
 75:   1511.85   0.001211    6.12  0.000250  (-0.013672  0.000482 -0.007930)
 76:   1523.14   0.001647    8.32  0.000337  (-0.007164 -0.015719  0.006245)
 77:   1530.69   0.001464    7.40  0.000298  (-0.000350  0.016945  0.003347)
 78:   1643.98   0.000209    1.06  0.000040  (-0.002299  0.002811  0.005146)
 79:   3063.86   0.003722   18.81  0.000379  ( 0.015871 -0.008190  0.007754)
 80:   3064.97   0.004800   24.26  0.000489  ( 0.013995  0.000347  0.017111)
 81:   3065.63   0.003295   16.65  0.000335  ( 0.015604 -0.006309 -0.007216)
 82:   3071.05   0.003445   17.41  0.000350  (-0.003378  0.011187  0.014611)
 83:   3071.55   0.003719   18.79  0.000378  (-0.004788 -0.017922  0.005805)
 84:   3078.86   0.004213   21.29  0.000427  (-0.012938 -0.015380  0.004806)
 85:   3139.77   0.000493    2.49  0.000049  (-0.005734  0.000887 -0.003922)
 86:   3141.74   0.001996   10.09  0.000198  (-0.007359 -0.005828  0.010494)
 87:   3143.36   0.005349   27.03  0.000531  (-0.002815  0.019518  0.011924)
 88:   3145.18   0.005779   29.20  0.000573  ( 0.020171 -0.005128  0.011842)
 89:   3149.63   0.005316   26.87  0.000527  ( 0.020239  0.002137 -0.010610)
 90:   3151.11   0.001361    6.88  0.000135  (-0.010568 -0.004044  0.002595)
 91:   3152.01   0.002207   11.16  0.000219  (-0.002070 -0.004930 -0.013783)
 92:   3155.28   0.009483   47.92  0.000938  ( 0.004734 -0.027514 -0.012586)
 93:   3157.33   0.011505   58.14  0.001137  ( 0.000895 -0.031073  0.013072)
 94:   3165.80   0.001059    5.35  0.000104  (-0.008285 -0.005976 -0.000141)
 95:   3170.34   0.003155   15.94  0.000311  ( 0.005012  0.014285 -0.009020)
 96:   3182.28   0.002401   12.13  0.000235  ( 0.009436  0.008365  0.008741)
 97:   3298.92   0.000160    0.81  0.000015  ( 0.001436  0.003469 -0.001021)
 98:   3322.45   0.000245    1.24  0.000023  ( 0.002206 -0.002672 -0.003311)

--------------------------
THERMOCHEMISTRY AT 298.15K
--------------------------

Temperature         ... 298.15 K
Pressure            ... 1.00 atm
Total Mass          ... 180.29 AMU

Throughout the following assumptions are being made:
  (1) The electronic state is orbitally nondegenerate
  (2) There are no thermally accessible electronically excited states
  (3) Hindered rotations indicated by low frequency modes are not
      treated as such but are treated as vibrations and this may
      cause some error
  (4) All equations used are the standard statistical mechanics
      equations for an ideal gas
  (5) All vibrations are strictly harmonic

freq.      12.31  E(vib)   ...       0.58
freq.      34.01  E(vib)   ...       0.55
freq.      99.89  E(vib)   ...       0.46
freq.     148.94  E(vib)   ...       0.40
freq.     173.37  E(vib)   ...       0.38
freq.     226.23  E(vib)   ...       0.33
freq.     247.97  E(vib)   ...       0.31
freq.     271.91  E(vib)   ...       0.29
freq.     280.82  E(vib)   ...       0.28
freq.     285.52  E(vib)   ...       0.28
freq.     298.58  E(vib)   ...       0.26
freq.     312.61  E(vib)   ...       0.25
freq.     342.16  E(vib)   ...       0.23
freq.     344.57  E(vib)   ...       0.23
freq.     350.10  E(vib)   ...       0.23
freq.     365.69  E(vib)   ...       0.22
freq.     373.51  E(vib)   ...       0.21
freq.     414.80  E(vib)   ...       0.19
freq.     450.72  E(vib)   ...       0.17
freq.     474.96  E(vib)   ...       0.15
freq.     479.59  E(vib)   ...       0.15
freq.     531.64  E(vib)   ...       0.13
freq.     583.68  E(vib)   ...       0.11
freq.     654.62  E(vib)   ...       0.08
freq.     669.95  E(vib)   ...       0.08
freq.     678.07  E(vib)   ...       0.08
freq.     737.35  E(vib)   ...       0.06
freq.     844.91  E(vib)   ...       0.04
freq.     855.88  E(vib)   ...       0.04
freq.     856.82  E(vib)   ...       0.04
freq.     947.67  E(vib)   ...       0.03
freq.     952.87  E(vib)   ...       0.03
freq.     957.60  E(vib)   ...       0.03
freq.     958.11  E(vib)   ...       0.03
freq.     975.83  E(vib)   ...       0.03
freq.     977.24  E(vib)   ...       0.03
freq.    1010.96  E(vib)   ...       0.02
freq.    1022.82  E(vib)   ...       0.02
freq.    1058.69  E(vib)   ...       0.02
freq.    1061.18  E(vib)   ...       0.02
freq.    1062.40  E(vib)   ...       0.02
freq.    1065.55  E(vib)   ...       0.02
freq.    1122.13  E(vib)   ...       0.01
freq.    1172.34  E(vib)   ...       0.01
freq.    1232.38  E(vib)   ...       0.01
freq.    1261.48  E(vib)   ...       0.01
freq.    1267.71  E(vib)   ...       0.01
freq.    1278.64  E(vib)   ...       0.01
freq.    1280.95  E(vib)   ...       0.01
freq.    1287.69  E(vib)   ...       0.01
freq.    1342.18  E(vib)   ...       0.01
freq.    1380.80  E(vib)   ...       0.01
freq.    1391.29  E(vib)   ...       0.00
freq.    1409.39  E(vib)   ...       0.00
freq.    1411.69  E(vib)   ...       0.00
freq.    1414.80  E(vib)   ...       0.00
freq.    1419.53  E(vib)   ...       0.00
freq.    1438.46  E(vib)   ...       0.00
freq.    1440.46  E(vib)   ...       0.00
freq.    1455.64  E(vib)   ...       0.00
freq.    1474.67  E(vib)   ...       0.00
freq.    1477.26  E(vib)   ...       0.00
freq.    1487.10  E(vib)   ...       0.00
freq.    1488.22  E(vib)   ...       0.00
freq.    1494.99  E(vib)   ...       0.00
freq.    1497.60  E(vib)   ...       0.00
freq.    1501.74  E(vib)   ...       0.00
freq.    1504.40  E(vib)   ...       0.00
freq.    1511.42  E(vib)   ...       0.00
freq.    1511.85  E(vib)   ...       0.00
freq.    1523.14  E(vib)   ...       0.00
freq.    1530.69  E(vib)   ...       0.00
freq.    1643.98  E(vib)   ...       0.00
freq.    3063.86  E(vib)   ...       0.00
freq.    3064.97  E(vib)   ...       0.00
freq.    3065.63  E(vib)   ...       0.00
freq.    3071.05  E(vib)   ...       0.00
freq.    3071.55  E(vib)   ...       0.00
freq.    3078.86  E(vib)   ...       0.00
freq.    3139.77  E(vib)   ...       0.00
freq.    3141.74  E(vib)   ...       0.00
freq.    3143.36  E(vib)   ...       0.00
freq.    3145.18  E(vib)   ...       0.00
freq.    3149.63  E(vib)   ...       0.00
freq.    3151.11  E(vib)   ...       0.00
freq.    3152.01  E(vib)   ...       0.00
freq.    3155.28  E(vib)   ...       0.00
freq.    3157.33  E(vib)   ...       0.00
freq.    3165.80  E(vib)   ...       0.00
freq.    3170.34  E(vib)   ...       0.00
freq.    3182.28  E(vib)   ...       0.00
freq.    3298.92  E(vib)   ...       0.00
freq.    3322.45  E(vib)   ...       0.00

------------
INNER ENERGY
------------

The inner energy is: U= E(el) + E(ZPE) + E(vib) + E(rot) + E(trans)
    E(el)   - is the total energy from the electronic structure calculation
              = E(kin-el) + E(nuc-el) + E(el-el) + E(nuc-nuc)
    E(ZPE)  - the the zero temperature vibrational energy from the frequency calculation
    E(vib)  - the the finite temperature correction to E(ZPE) due to population
              of excited vibrational states
    E(rot)  - is the rotational thermal energy
    E(trans)- is the translational thermal energy

Summary of contributions to the inner energy U:
Electronic energy                ...   -540.75102821 Eh
Zero point energy                ...      0.29843500 Eh     187.27 kcal/mol
Thermal vibrational correction   ...      0.01150177 Eh       7.22 kcal/mol
Thermal rotational correction    ...      0.00141627 Eh       0.89 kcal/mol
Thermal translational correction ...      0.00141627 Eh       0.89 kcal/mol
-----------------------------------------------------------------------
Total thermal energy                   -540.43825890 Eh

Summary of corrections to the electronic energy:
(perhaps to be used in another calculation)
Total thermal correction                  0.01433431 Eh       8.99 kcal/mol
Non-thermal (ZPE) correction              0.29843500 Eh     187.27 kcal/mol
-----------------------------------------------------------------------
Total correction                          0.31276931 Eh     196.27 kcal/mol

--------
ENTHALPY
--------

The enthalpy is H = U + kB*T
                kB is Boltzmann's constant
Total free energy                 ...   -540.43825890 Eh
Thermal Enthalpy correction       ...      0.00094421 Eh       0.59 kcal/mol
-----------------------------------------------------------------------
Total Enthalpy                    ...   -540.43731469 Eh

Note: Only C1 symmetry has been detected, increase convergence thresholds
      if your molecule has a higher symmetry. Symmetry factor of 1.0 is
      used for the rotational entropy correction.

Note: Rotational entropy computed according to Herzberg
Infrared and Raman Spectra, Chapter V,1, Van Nostrand Reinhold, 1945

Rotational constants in cm-1:     0.055995     0.015167     0.014146

                             ****ORCA TERMINATED NORMALLY****
TOTAL RUN TIME: 0 days 1 hours 4 minutes 38 seconds 171 msec
