                         Program Version 5.0.4 -  RELEASE  -
|  1> # ORCA 5.0.4 - /users/bwb16179/postgrad/2024_06/pKa_Reviewer_Comments/Gas_Z=0/6_deprot.inp # write input file
|  2> # Basic Mode
|  3> #
|  4> ! Opt Freq wB97X Def2-TZVP D4 SlowConv TightSCF Defgrid2 Def2/J RIJCOSX
|  5>
|  6> %PAL NPROCS 4 END
|  7>
|  8> %maxcore 4500
|  9>
| 10> %geom
| 11> Maxiter 150
| 12> END
| 13>
| 14> * xyzfile 0 1 6_deprot.xyz
| 15>
| 16>                          ****END OF INPUT****
 Total Charge           Charge          ....    0
 Multiplicity           Mult            ....    1
 Number of Electrons    NEL             ....  100
Dispersion correction           -0.005754017
FINAL SINGLE POINT ENERGY      -540.757872053830
Dispersion correction            ... Starting D4
Dispersion correction           -0.005767199
FINAL SINGLE POINT ENERGY      -540.759151693625
Dispersion correction            ... Starting D4
Dispersion correction           -0.005767126
FINAL SINGLE POINT ENERGY      -540.759162409285
Dispersion correction            ... Starting D4
Dispersion correction           -0.005766811
FINAL SINGLE POINT ENERGY      -540.759164233652
Dispersion correction            ... Starting D4
                    ***********************HURRAY********************

CARTESIAN COORDINATES (ANGSTROEM)
---------------------------------
  C      0.709754    0.725247   -2.924466
  C      0.983380   -0.569303   -2.652475
  C      1.463237    0.632583   -0.768776
  N      1.019099    1.431598   -1.765195
  N      1.428295   -0.595209   -1.333367
  C      0.188065    1.360278   -4.166226
  C      0.869853   -1.782288   -3.508938
  H      0.005587    0.600914   -4.925846
  H      0.560120   -1.501975   -4.515141
  H      0.132230   -2.489513   -3.121294
  H     -0.754799    1.884763   -3.991385
  H      0.896376    2.080946   -4.582449
  H      1.822718   -2.310911   -3.592637
  C     -0.522796    3.112460   -0.868056
  C      1.525249   -1.818771    0.800072
  C      3.438885   -1.902068   -0.836488
  C      1.964294    3.517575   -0.867976
  C      0.795320    2.867468   -1.590386
  C      1.928790   -1.796739   -0.664539
  H     -0.715551    4.182751   -0.771541
  H      0.441785   -1.753625    0.907128
  H      3.717055   -1.890136   -1.892716
  H      2.897000    3.354580   -1.409811
  H     -1.357371    2.658086   -1.406344
  H      1.966199   -0.972846    1.325861
  H      3.922962   -1.054606   -0.347267
  H      2.074782    3.090150    0.128091
  H     -0.479734    2.671527    0.129602
  H      1.869277   -2.747521    1.259516
  H      3.815007   -2.826053   -0.392713
  H      1.793709    4.592427   -0.781406
  H      0.729676    3.294264   -2.594403
  H      1.457119   -2.647211   -1.163880

 Multiplicity           Mult            ....    1
 Number of Electrons    NEL             ....  100
 Basis Dimension        Dim             ....  523

ORBITAL ENERGIES
----------------

  NO   OCC          E(Eh)            E(eV)
   0   2.0000     -14.419429      -392.3726
   1   2.0000     -14.419301      -392.3691
   2   2.0000     -10.291508      -280.0462
   3   2.0000     -10.291286      -280.0401
   4   2.0000     -10.274959      -279.5959
   5   2.0000     -10.274131      -279.5733
   6   2.0000     -10.262012      -279.2435
   7   2.0000     -10.261978      -279.2426
   8   2.0000     -10.243630      -278.7433
   9   2.0000     -10.240286      -278.6524
  10   2.0000     -10.239197      -278.6227
  11   2.0000     -10.233255      -278.4610
  12   2.0000     -10.233077      -278.4562
  13   2.0000      -1.144039       -31.1309
  14   2.0000      -1.040604       -28.3163
  15   2.0000      -0.942200       -25.6386
  16   2.0000      -0.909560       -24.7504
  17   2.0000      -0.894349       -24.3365
  18   2.0000      -0.853244       -23.2179
  19   2.0000      -0.811877       -22.0923
  20   2.0000      -0.811337       -22.0776
  21   2.0000      -0.793157       -21.5829
  22   2.0000      -0.768113       -20.9014
  23   2.0000      -0.701039       -19.0763
  24   2.0000      -0.680010       -18.5040
  25   2.0000      -0.647107       -17.6087
  26   2.0000      -0.621498       -16.9118
  27   2.0000      -0.585194       -15.9239
  28   2.0000      -0.559274       -15.2186
  29   2.0000      -0.555197       -15.1077
  30   2.0000      -0.553102       -15.0507
  31   2.0000      -0.539627       -14.6840
  32   2.0000      -0.537475       -14.6254
  33   2.0000      -0.526310       -14.3216
  34   2.0000      -0.514459       -13.9991
  35   2.0000      -0.512375       -13.9424
  36   2.0000      -0.509661       -13.8686
  37   2.0000      -0.495185       -13.4747
  38   2.0000      -0.489685       -13.3250
  39   2.0000      -0.487287       -13.2597
  40   2.0000      -0.474840       -12.9210
  41   2.0000      -0.464801       -12.6479
  42   2.0000      -0.460833       -12.5399
  43   2.0000      -0.451494       -12.2858
  44   2.0000      -0.440773       -11.9941
  45   2.0000      -0.438309       -11.9270
  46   2.0000      -0.431591       -11.7442
  47   2.0000      -0.354748        -9.6532
  48   2.0000      -0.301563        -8.2059
  49   2.0000      -0.299752        -8.1567
  50   0.0000       0.103828         2.8253
  51   0.0000       0.119845         3.2611
  52   0.0000       0.129006         3.5104
  53   0.0000       0.131669         3.5829
  54   0.0000       0.138173         3.7599

MULLIKEN ATOMIC CHARGES
-----------------------
   0 C :    0.003039
   1 C :   -0.002146
   2 C :   -0.273054
   3 N :    0.005081
   4 N :    0.002257
   5 C :   -0.348129
   6 C :   -0.343310
   7 H :    0.111601
   8 H :    0.111953
   9 H :    0.141639
  10 H :    0.134865
  11 H :    0.140395
  12 H :    0.130920
  13 C :   -0.347236
  14 C :   -0.324590
  15 C :   -0.346955
  16 C :   -0.328612
  17 C :   -0.043936
  18 C :   -0.043248
  19 H :    0.112981
  20 H :    0.111551
  21 H :    0.106334
  22 H :    0.110168
  23 H :    0.107461
  24 H :    0.143278
  25 H :    0.135132
  26 H :    0.144760
  27 H :    0.137064
  28 H :    0.109603
  29 H :    0.114079
  30 H :    0.109047
  31 H :    0.089097
  32 H :    0.088909
Sum of atomic charges:   -0.0000000

LOEWDIN ATOMIC CHARGES
----------------------
   0 C :   -0.222899
   1 C :   -0.223120
   2 C :   -0.329746
   3 N :    0.242787
   4 N :    0.242553
   5 C :   -0.264185
   6 C :   -0.263657
   7 H :    0.129044
   8 H :    0.128922
   9 H :    0.127597
  10 H :    0.126964
  11 H :    0.127560
  12 H :    0.126418
  13 C :   -0.277366
  14 C :   -0.280465
  15 C :   -0.276896
  16 C :   -0.280368
  17 C :   -0.301453
  18 C :   -0.301734
  19 H :    0.120751
  20 H :    0.121989
  21 H :    0.117643
  22 H :    0.121291
  23 H :    0.118114
  24 H :    0.128966
  25 H :    0.128367
  26 H :    0.129211
  27 H :    0.128642
  28 H :    0.120023
  29 H :    0.120980
  30 H :    0.119817
  31 H :    0.147154
  32 H :    0.147096

  Mayer bond orders larger than 0.100000
B(  0-C ,  1-C ) :   1.7569 B(  0-C ,  3-N ) :   1.1478 B(  0-C ,  5-C ) :   0.8324
B(  1-C ,  4-N ) :   1.1419 B(  1-C ,  6-C ) :   0.8337 B(  2-C ,  3-N ) :   1.1439
B(  2-C ,  4-N ) :   1.1470 B(  3-N , 17-C ) :   0.8718 B(  4-N , 18-C ) :   0.8728
B(  5-C ,  7-H ) :   1.0013 B(  5-C , 10-H ) :   0.9829 B(  5-C , 11-H ) :   0.9908
B(  6-C ,  8-H ) :   1.0017 B(  6-C ,  9-H ) :   0.9912 B(  6-C , 12-H ) :   0.9815
B( 13-C , 17-C ) :   0.9716 B( 13-C , 19-H ) :   0.9847 B( 13-C , 23-H ) :   0.9719
B( 13-C , 27-H ) :   0.9757 B( 14-C , 18-C ) :   0.9733 B( 14-C , 20-H ) :   0.9840
B( 14-C , 24-H ) :   0.9701 B( 14-C , 28-H ) :   0.9769 B( 15-C , 18-C ) :   0.9715
B( 15-C , 21-H ) :   0.9718 B( 15-C , 25-H ) :   0.9755 B( 15-C , 29-H ) :   0.9851
B( 16-C , 17-C ) :   0.9731 B( 16-C , 22-H ) :   0.9831 B( 16-C , 26-H ) :   0.9695
B( 16-C , 30-H ) :   0.9778 B( 17-C , 31-H ) :   0.9798 B( 18-C , 32-H ) :   0.9783

Dispersion correction           -0.005766567
FINAL SINGLE POINT ENERGY      -540.759164705967

DIPOLE MOMENT
-------------
                                X             Y             Z
Electronic contribution:     -0.71536      -0.47376      -1.64432
Nuclear contribution   :      0.41268       0.19409       0.63103
                        -----------------------------------------
Total Dipole Moment    :     -0.30268      -0.27967      -1.01330
                        -----------------------------------------
Magnitude (a.u.)       :      1.09390
Magnitude (Debye)      :      2.78046

Dispersion correction in the Hessian             ... Starting D4

VIBRATIONAL FREQUENCIES
-----------------------

Scaling factor for frequencies =  1.000000000  (already applied!)

   0:         0.00 cm**-1
   1:         0.00 cm**-1
   2:         0.00 cm**-1
   3:         0.00 cm**-1
   4:         0.00 cm**-1
   5:         0.00 cm**-1
   6:        19.80 cm**-1
   7:        49.80 cm**-1
   8:        83.92 cm**-1
   9:       110.52 cm**-1
  10:       149.18 cm**-1
  11:       167.48 cm**-1
  12:       207.57 cm**-1
  13:       211.65 cm**-1
  14:       222.81 cm**-1
  15:       230.43 cm**-1
  16:       234.58 cm**-1
  17:       260.51 cm**-1
  18:       269.41 cm**-1
  19:       277.37 cm**-1
  20:       288.95 cm**-1
  21:       322.79 cm**-1
  22:       329.25 cm**-1
  23:       389.77 cm**-1
  24:       428.36 cm**-1
  25:       471.03 cm**-1
  26:       488.29 cm**-1
  27:       549.09 cm**-1
  28:       616.42 cm**-1
  29:       637.30 cm**-1
  30:       666.39 cm**-1
  31:       695.39 cm**-1
  32:       743.91 cm**-1
  33:       811.77 cm**-1
  34:       910.52 cm**-1
  35:       929.57 cm**-1
  36:       941.93 cm**-1
  37:       945.32 cm**-1
  38:       967.03 cm**-1
  39:       969.28 cm**-1
  40:       981.91 cm**-1
  41:      1065.86 cm**-1
  42:      1082.79 cm**-1
  43:      1083.79 cm**-1
  44:      1104.37 cm**-1
  45:      1148.99 cm**-1
  46:      1151.02 cm**-1
  47:      1173.12 cm**-1
  48:      1175.90 cm**-1
  49:      1191.54 cm**-1
  50:      1226.55 cm**-1
  51:      1230.41 cm**-1
  52:      1342.38 cm**-1
  53:      1365.34 cm**-1
  54:      1367.68 cm**-1
  55:      1374.33 cm**-1
  56:      1411.74 cm**-1
  57:      1413.39 cm**-1
  58:      1414.20 cm**-1
  59:      1415.69 cm**-1
  60:      1423.19 cm**-1
  61:      1424.60 cm**-1
  62:      1439.67 cm**-1
  63:      1444.13 cm**-1
  64:      1457.19 cm**-1
  65:      1463.92 cm**-1
  66:      1480.56 cm**-1
  67:      1482.38 cm**-1
  68:      1486.49 cm**-1
  69:      1489.53 cm**-1
  70:      1492.64 cm**-1
  71:      1492.74 cm**-1
  72:      1498.14 cm**-1
  73:      1499.45 cm**-1
  74:      1502.41 cm**-1
  75:      1506.03 cm**-1
  76:      1516.28 cm**-1
  77:      1517.81 cm**-1
  78:      1745.34 cm**-1
  79:      3061.69 cm**-1
  80:      3063.17 cm**-1
  81:      3063.34 cm**-1
  82:      3063.75 cm**-1
  83:      3074.11 cm**-1
  84:      3074.96 cm**-1
  85:      3091.15 cm**-1
  86:      3094.18 cm**-1
  87:      3120.11 cm**-1
  88:      3120.51 cm**-1
  89:      3140.99 cm**-1
  90:      3142.20 cm**-1
  91:      3149.99 cm**-1
  92:      3150.50 cm**-1
  93:      3152.45 cm**-1
  94:      3152.70 cm**-1
  95:      3159.24 cm**-1
  96:      3164.03 cm**-1
  97:      3170.90 cm**-1
  98:      3172.99 cm**-1

IR SPECTRUM
-----------

 Mode   freq       eps      Int      T**2         TX        TY        TZ
       cm**-1   L/(mol*cm) km/mol    a.u.
----------------------------------------------------------------------------
  6:     19.80   0.000038    0.19  0.000606  (-0.023553  0.002186  0.006831)
  7:     49.80   0.000080    0.40  0.000502  (-0.021557  0.003089  0.005273)
  8:     83.92   0.000691    3.49  0.002568  ( 0.046461  0.011284 -0.016800)
  9:    110.52   0.000005    0.03  0.000015  (-0.002773 -0.000724  0.002545)
 10:    149.18   0.000151    0.76  0.000316  ( 0.004666  0.004214  0.016618)
 11:    167.48   0.000051    0.26  0.000096  (-0.006803 -0.005798  0.003984)
 12:    207.57   0.000054    0.27  0.000081  (-0.003688 -0.007910  0.002128)
 13:    211.65   0.000017    0.09  0.000025  ( 0.000840  0.004786 -0.001302)
 14:    222.81   0.000088    0.44  0.000123  ( 0.001277 -0.010692  0.002688)
 15:    230.43   0.000022    0.11  0.000030  (-0.000340 -0.005098  0.001861)
 16:    234.58   0.000462    2.33  0.000614  ( 0.001017 -0.023783  0.006890)
 17:    260.51   0.000009    0.04  0.000010  ( 0.001047 -0.002997  0.000456)
 18:    269.41   0.000006    0.03  0.000007  ( 0.000398 -0.002676  0.000080)
 19:    277.37   0.000087    0.44  0.000098  (-0.009528  0.001943  0.001901)
 20:    288.95   0.000024    0.12  0.000026  ( 0.001135  0.002184  0.004504)
 21:    322.79   0.000337    1.70  0.000326  ( 0.000908 -0.017811  0.002809)
 22:    329.25   0.000085    0.43  0.000080  (-0.003882  0.002302 -0.007743)
 23:    389.77   0.001321    6.68  0.001058  ( 0.029578  0.007422 -0.011298)
 24:    428.36   0.000666    3.37  0.000485  ( 0.020425 -0.006966 -0.004412)
 25:    471.03   0.000140    0.71  0.000093  (-0.002697 -0.002903 -0.008789)
 26:    488.29   0.000017    0.09  0.000011  (-0.001250 -0.000895 -0.002932)
 27:    549.09   0.000416    2.10  0.000236  ( 0.002121 -0.014879  0.003233)
 28:    616.42   0.000739    3.74  0.000374  (-0.005524 -0.004470 -0.017994)
 29:    637.30   0.000163    0.82  0.000080  (-0.004163  0.007892 -0.000304)
 30:    666.39   0.000238    1.20  0.000111  ( 0.007425 -0.007486  0.000224)
 31:    695.39   0.000003    0.01  0.000001  ( 0.000363 -0.000110  0.001038)
 32:    743.91   0.001198    6.05  0.000502  ( 0.006221  0.005747  0.020752)
 33:    811.77   0.000710    3.59  0.000273  ( 0.005925 -0.015224  0.002428)
 34:    910.52   0.000124    0.63  0.000042  ( 0.001575  0.002584  0.005767)
 35:    929.57   0.000908    4.59  0.000305  (-0.006859  0.015924 -0.002027)
 36:    941.93   0.000165    0.84  0.000055  (-0.005500 -0.004924 -0.000518)
 37:    945.32   0.000216    1.09  0.000071  ( 0.003373  0.004413 -0.006368)
 38:    967.03   0.000005    0.03  0.000002  (-0.001254  0.000014  0.000201)
 39:    969.28   0.000015    0.07  0.000005  ( 0.002086 -0.000433 -0.000452)
 40:    981.91   0.000631    3.19  0.000201  (-0.003740 -0.003727 -0.013139)
 41:   1065.86   0.000023    0.11  0.000007  (-0.001806 -0.001754  0.000562)
 42:   1082.79   0.000468    2.36  0.000135  ( 0.001961 -0.011228  0.002198)
 43:   1083.79   0.000066    0.34  0.000019  (-0.001202  0.002574 -0.003322)
 44:   1104.37   0.000835    4.22  0.000236  ( 0.004036  0.005583  0.013732)
 45:   1148.99   0.000446    2.26  0.000121  (-0.003468  0.000536 -0.010437)
 46:   1151.02   0.006895   34.85  0.001869  ( 0.009529 -0.041485  0.007591)
 47:   1173.12   0.001298    6.56  0.000345  ( 0.012586  0.011868 -0.006784)
 48:   1175.90   0.000079    0.40  0.000021  ( 0.001038  0.002749 -0.003501)
 49:   1191.54   0.000737    3.72  0.000193  (-0.010814  0.008610  0.001360)
 50:   1226.55   0.000113    0.57  0.000029  ( 0.001712  0.001327  0.004909)
 51:   1230.41   0.000477    2.41  0.000121  (-0.001621  0.010634 -0.002292)
 52:   1342.38   0.001233    6.23  0.000287  ( 0.004953  0.003995  0.015692)
 53:   1365.34   0.000115    0.58  0.000026  ( 0.002728  0.001289 -0.004156)
 54:   1367.68   0.000193    0.98  0.000044  ( 0.002684  0.005845  0.001649)
 55:   1374.33   0.007694   38.88  0.001747  ( 0.014673 -0.038548  0.006771)
 56:   1411.74   0.003522   17.80  0.000779  ( 0.027631 -0.002640 -0.002861)
 57:   1413.39   0.004667   23.58  0.001030  ( 0.025894 -0.015725 -0.010609)
 58:   1414.20   0.003030   15.31  0.000669  (-0.004398  0.016122 -0.019733)
 59:   1415.69   0.008559   43.25  0.001887  (-0.002185  0.043115 -0.004800)
 60:   1423.19   0.005537   27.98  0.001214  (-0.003581  0.032253  0.012690)
 61:   1424.60   0.005872   29.67  0.001286  ( 0.018926 -0.022555  0.020477)
 62:   1439.67   0.002377   12.01  0.000515  (-0.003235  0.022168 -0.003638)
 63:   1444.13   0.001804    9.12  0.000390  (-0.005834 -0.001062 -0.018831)
 64:   1457.19   0.002635   13.32  0.000564  ( 0.003638 -0.022095  0.007929)
 65:   1463.92   0.008265   41.77  0.001762  (-0.012036 -0.013688 -0.037811)
 66:   1480.56   0.000340    1.72  0.000072  (-0.008029  0.002350  0.001298)
 67:   1482.38   0.000516    2.61  0.000109  ( 0.009966 -0.001657 -0.002574)
 68:   1486.49   0.000317    1.60  0.000067  (-0.007323 -0.000421  0.003583)
 69:   1489.53   0.001603    8.10  0.000336  (-0.017564  0.000078  0.005229)
 70:   1492.64   0.000444    2.24  0.000093  (-0.004577 -0.000531  0.008462)
 71:   1492.74   0.001657    8.37  0.000346  (-0.017067  0.001781  0.007206)
 72:   1498.14   0.001137    5.75  0.000237  (-0.002469  0.013174 -0.007561)
 73:   1499.45   0.002172   10.98  0.000452  ( 0.007702  0.011110  0.016408)
 74:   1502.41   0.001093    5.52  0.000227  (-0.007440 -0.004456 -0.012323)
 75:   1506.03   0.000994    5.02  0.000206  ( 0.000564  0.000168  0.014339)
 76:   1516.28   0.001445    7.30  0.000297  ( 0.005534  0.015608 -0.004812)
 77:   1517.81   0.000223    1.13  0.000046  (-0.001881  0.001014 -0.006429)
 78:   1745.34   0.000119    0.60  0.000021  ( 0.001203  0.000852  0.004370)
 79:   3061.69   0.010596   53.55  0.001080  ( 0.012173 -0.029930  0.006002)
 80:   3063.17   0.003709   18.74  0.000378  (-0.018224  0.003697  0.005660)
 81:   3063.34   0.003366   17.01  0.000343  (-0.009988 -0.006639 -0.014107)
 82:   3063.75   0.003532   17.85  0.000360  (-0.015259  0.003813  0.010601)
 83:   3074.11   0.004498   22.73  0.000457  (-0.009408 -0.018665 -0.004436)
 84:   3074.96   0.004090   20.67  0.000415  ( 0.000515  0.009275 -0.018132)
 85:   3091.15   0.004364   22.05  0.000441  ( 0.007076  0.019523  0.003059)
 86:   3094.18   0.003622   18.31  0.000365  (-0.001061  0.010731 -0.015781)
 87:   3120.11   0.002264   11.44  0.000226  (-0.014541 -0.000959  0.003746)
 88:   3120.51   0.002987   15.09  0.000299  (-0.016272 -0.001730  0.005560)
 89:   3140.99   0.005414   27.36  0.000538  ( 0.000391 -0.008163  0.021704)
 90:   3142.20   0.004887   24.69  0.000485  (-0.011213 -0.015893 -0.010344)
 91:   3149.99   0.004638   23.44  0.000459  ( 0.007195 -0.014903 -0.013624)
 92:   3150.50   0.001620    8.19  0.000160  ( 0.009478  0.004906  0.006824)
 93:   3152.45   0.013359   67.51  0.001322  ( 0.018184 -0.030695  0.007042)
 94:   3152.70   0.000558    2.82  0.000055  (-0.004572  0.005856 -0.000133)
 95:   3159.24   0.003450   17.44  0.000341  ( 0.003465 -0.018119  0.000709)
 96:   3164.03   0.004095   20.69  0.000404  (-0.005995 -0.002747 -0.018983)
 97:   3170.90   0.003111   15.72  0.000306  (-0.004355 -0.011606  0.012351)
 98:   3172.99   0.002623   13.25  0.000258  ( 0.008830  0.013295  0.001791)

--------------------------
THERMOCHEMISTRY AT 298.15K
--------------------------

Temperature         ... 298.15 K
Pressure            ... 1.00 atm
Total Mass          ... 180.29 AMU

Throughout the following assumptions are being made:
  (1) The electronic state is orbitally nondegenerate
  (2) There are no thermally accessible electronically excited states
  (3) Hindered rotations indicated by low frequency modes are not
      treated as such but are treated as vibrations and this may
      cause some error
  (4) All equations used are the standard statistical mechanics
      equations for an ideal gas
  (5) All vibrations are strictly harmonic

freq.      19.80  E(vib)   ...       0.56
freq.      49.80  E(vib)   ...       0.52
freq.      83.92  E(vib)   ...       0.48
freq.     110.52  E(vib)   ...       0.45
freq.     149.18  E(vib)   ...       0.40
freq.     167.48  E(vib)   ...       0.38
freq.     207.57  E(vib)   ...       0.34
freq.     211.65  E(vib)   ...       0.34
freq.     222.81  E(vib)   ...       0.33
freq.     230.43  E(vib)   ...       0.32
freq.     234.58  E(vib)   ...       0.32
freq.     260.51  E(vib)   ...       0.30
freq.     269.41  E(vib)   ...       0.29
freq.     277.37  E(vib)   ...       0.28
freq.     288.95  E(vib)   ...       0.27
freq.     322.79  E(vib)   ...       0.25
freq.     329.25  E(vib)   ...       0.24
freq.     389.77  E(vib)   ...       0.20
freq.     428.36  E(vib)   ...       0.18
freq.     471.03  E(vib)   ...       0.15
freq.     488.29  E(vib)   ...       0.15
freq.     549.09  E(vib)   ...       0.12
freq.     616.42  E(vib)   ...       0.09
freq.     637.30  E(vib)   ...       0.09
freq.     666.39  E(vib)   ...       0.08
freq.     695.39  E(vib)   ...       0.07
freq.     743.91  E(vib)   ...       0.06
freq.     811.77  E(vib)   ...       0.05
freq.     910.52  E(vib)   ...       0.03
freq.     929.57  E(vib)   ...       0.03
freq.     941.93  E(vib)   ...       0.03
freq.     945.32  E(vib)   ...       0.03
freq.     967.03  E(vib)   ...       0.03
freq.     969.28  E(vib)   ...       0.03
freq.     981.91  E(vib)   ...       0.02
freq.    1065.86  E(vib)   ...       0.02
freq.    1082.79  E(vib)   ...       0.02
freq.    1083.79  E(vib)   ...       0.02
freq.    1104.37  E(vib)   ...       0.02
freq.    1148.99  E(vib)   ...       0.01
freq.    1151.02  E(vib)   ...       0.01
freq.    1173.12  E(vib)   ...       0.01
freq.    1175.90  E(vib)   ...       0.01
freq.    1191.54  E(vib)   ...       0.01
freq.    1226.55  E(vib)   ...       0.01
freq.    1230.41  E(vib)   ...       0.01
freq.    1342.38  E(vib)   ...       0.01
freq.    1365.34  E(vib)   ...       0.01
freq.    1367.68  E(vib)   ...       0.01
freq.    1374.33  E(vib)   ...       0.01
freq.    1411.74  E(vib)   ...       0.00
freq.    1413.39  E(vib)   ...       0.00
freq.    1414.20  E(vib)   ...       0.00
freq.    1415.69  E(vib)   ...       0.00
freq.    1423.19  E(vib)   ...       0.00
freq.    1424.60  E(vib)   ...       0.00
freq.    1439.67  E(vib)   ...       0.00
freq.    1444.13  E(vib)   ...       0.00
freq.    1457.19  E(vib)   ...       0.00
freq.    1463.92  E(vib)   ...       0.00
freq.    1480.56  E(vib)   ...       0.00
freq.    1482.38  E(vib)   ...       0.00
freq.    1486.49  E(vib)   ...       0.00
freq.    1489.53  E(vib)   ...       0.00
freq.    1492.64  E(vib)   ...       0.00
freq.    1492.74  E(vib)   ...       0.00
freq.    1498.14  E(vib)   ...       0.00
freq.    1499.45  E(vib)   ...       0.00
freq.    1502.41  E(vib)   ...       0.00
freq.    1506.03  E(vib)   ...       0.00
freq.    1516.28  E(vib)   ...       0.00
freq.    1517.81  E(vib)   ...       0.00
freq.    1745.34  E(vib)   ...       0.00
freq.    3061.69  E(vib)   ...       0.00
freq.    3063.17  E(vib)   ...       0.00
freq.    3063.34  E(vib)   ...       0.00
freq.    3063.75  E(vib)   ...       0.00
freq.    3074.11  E(vib)   ...       0.00
freq.    3074.96  E(vib)   ...       0.00
freq.    3091.15  E(vib)   ...       0.00
freq.    3094.18  E(vib)   ...       0.00
freq.    3120.11  E(vib)   ...       0.00
freq.    3120.51  E(vib)   ...       0.00
freq.    3140.99  E(vib)   ...       0.00
freq.    3142.20  E(vib)   ...       0.00
freq.    3149.99  E(vib)   ...       0.00
freq.    3150.50  E(vib)   ...       0.00
freq.    3152.45  E(vib)   ...       0.00
freq.    3152.70  E(vib)   ...       0.00
freq.    3159.24  E(vib)   ...       0.00
freq.    3164.03  E(vib)   ...       0.00
freq.    3170.90  E(vib)   ...       0.00
freq.    3172.99  E(vib)   ...       0.00

------------
INNER ENERGY
------------

The inner energy is: U= E(el) + E(ZPE) + E(vib) + E(rot) + E(trans)
    E(el)   - is the total energy from the electronic structure calculation
              = E(kin-el) + E(nuc-el) + E(el-el) + E(nuc-nuc)
    E(ZPE)  - the the zero temperature vibrational energy from the frequency calculation
    E(vib)  - the the finite temperature correction to E(ZPE) due to population
              of excited vibrational states
    E(rot)  - is the rotational thermal energy
    E(trans)- is the translational thermal energy

Summary of contributions to the inner energy U:
Electronic energy                ...   -540.75916471 Eh
Zero point energy                ...      0.29858552 Eh     187.36 kcal/mol
Thermal vibrational correction   ...      0.01239158 Eh       7.78 kcal/mol
Thermal rotational correction    ...      0.00141627 Eh       0.89 kcal/mol
Thermal translational correction ...      0.00141627 Eh       0.89 kcal/mol
-----------------------------------------------------------------------
Total thermal energy                   -540.44535506 Eh

Summary of corrections to the electronic energy:
(perhaps to be used in another calculation)
Total thermal correction                  0.01522413 Eh       9.55 kcal/mol
Non-thermal (ZPE) correction              0.29858552 Eh     187.36 kcal/mol
-----------------------------------------------------------------------
Total correction                          0.31380964 Eh     196.92 kcal/mol

--------
ENTHALPY
--------

The enthalpy is H = U + kB*T
                kB is Boltzmann's constant
Total free energy                 ...   -540.44535506 Eh
Thermal Enthalpy correction       ...      0.00094421 Eh       0.59 kcal/mol
-----------------------------------------------------------------------
Total Enthalpy                    ...   -540.44441085 Eh

Note: Only C1 symmetry has been detected, increase convergence thresholds
      if your molecule has a higher symmetry. Symmetry factor of 1.0 is
      used for the rotational entropy correction.

Note: Rotational entropy computed according to Herzberg
Infrared and Raman Spectra, Chapter V,1, Van Nostrand Reinhold, 1945

Rotational constants in cm-1:     0.036518     0.019533     0.014966

                             ****ORCA TERMINATED NORMALLY****
TOTAL RUN TIME: 0 days 1 hours 31 minutes 38 seconds 598 msec
