                         Program Version 5.0.4 -  RELEASE  -
|  1> # ORCA 5.0.4 - /users/bwb16179/postgrad/2024_06/pKa_Reviewer_Comments/Gas_Z=0/7_deprot.inp # write input file
|  2> # Basic Mode
|  3> #
|  4> ! Opt Freq wB97X Def2-TZVP D4 SlowConv TightSCF Defgrid2 Def2/J RIJCOSX
|  5>
|  6> %PAL NPROCS 4 END
|  7>
|  8> %maxcore 4500
|  9>
| 10> %geom
| 11> Maxiter 150
| 12> END
| 13>
| 14> * xyzfile 0 1 7_deprot.xyz
| 15>
| 16>                          ****END OF INPUT****
 Total Charge           Charge          ....    0
 Multiplicity           Mult            ....    1
 Number of Electrons    NEL             ....  116
Dispersion correction           -0.005816784
FINAL SINGLE POINT ENERGY      -688.333043766603
Dispersion correction            ... Starting D4
Dispersion correction           -0.005836355
FINAL SINGLE POINT ENERGY      -688.334692303118
Dispersion correction            ... Starting D4
Dispersion correction           -0.005837234
FINAL SINGLE POINT ENERGY      -688.334745428074
Dispersion correction            ... Starting D4
FINAL SINGLE POINT ENERGY      -688.334785226224
Dispersion correction           -0.005836957
FINAL SINGLE POINT ENERGY      -688.334818021210
Dispersion correction            ... Starting D4
Dispersion correction           -0.005836771
FINAL SINGLE POINT ENERGY      -688.334839781537
Dispersion correction            ... Starting D4
                    ***********************HURRAY********************

CARTESIAN COORDINATES (ANGSTROEM)
---------------------------------
  C     -0.000275    0.670464   -1.837375
  C      0.000271   -0.670461   -1.837377
  H     -0.020861    1.366633   -2.657652
  H      0.020852   -1.366628   -2.657656
  C     -0.006880    2.410041   -0.061430
  C     -0.595767    2.729805    1.154401
  C      0.576800    3.402179   -0.835840
  C     -0.598695    4.044190    1.587306
  H     -1.035424    1.937839    1.745718
  C      0.559426    4.718020   -0.398132
  H      1.066444    3.150034   -1.768537
  C     -0.026972    5.044612    0.813436
  H     -1.058850    4.289375    2.537035
  H      1.019847    5.487678   -1.005792
  H     -0.036102    6.072174    1.155541
  C      0.006882   -2.410043   -0.061434
  C      0.595766   -2.729804    1.154400
  C     -0.576797   -3.402182   -0.835843
  C      0.598694   -4.044189    1.587307
  H      1.035422   -1.937837    1.745716
  C     -0.559423   -4.718021   -0.398132
  H     -1.066444   -3.150038   -1.768539
  C      0.026973   -5.044611    0.813437
  H      1.058846   -4.289371    2.537037
  H     -1.019841   -5.487681   -1.005792
  H      0.036103   -6.072174    1.155543
  C      0.000003   -0.000001    0.347256
  N     -0.002146    1.058424   -0.503862
  N      0.002148   -1.058425   -0.503864

 Multiplicity           Mult            ....    1
 Number of Electrons    NEL             ....  116
 Basis Dimension        Dim             ....  599

ORBITAL ENERGIES
----------------

  NO   OCC          E(Eh)            E(eV)
   0   2.0000     -14.453326      -393.2950
   1   2.0000     -14.453298      -393.2942
   2   2.0000     -10.307167      -280.4723
   3   2.0000     -10.307160      -280.4721
   4   2.0000     -10.293479      -280.0998
   5   2.0000     -10.292675      -280.0779
   6   2.0000     -10.272801      -279.5371
   7   2.0000     -10.266346      -279.3615
   8   2.0000     -10.266345      -279.3615
   9   2.0000     -10.265365      -279.3348
  10   2.0000     -10.265365      -279.3348
  11   2.0000     -10.262904      -279.2678
  12   2.0000     -10.262904      -279.2678
  13   2.0000     -10.260101      -279.1915
  14   2.0000     -10.260101      -279.1915
  15   2.0000     -10.258541      -279.1491
  16   2.0000     -10.258541      -279.1491
  17   2.0000      -1.172800       -31.9135
  18   2.0000      -1.072684       -29.1892
  19   2.0000      -1.003140       -27.2968
  20   2.0000      -0.984969       -26.8024
  21   2.0000      -0.918325       -24.9889
  22   2.0000      -0.890673       -24.2364
  23   2.0000      -0.885903       -24.1066
  24   2.0000      -0.873052       -23.7570
  25   2.0000      -0.867130       -23.5958
  26   2.0000      -0.784308       -21.3421
  27   2.0000      -0.765872       -20.8404
  28   2.0000      -0.737176       -20.0596
  29   2.0000      -0.729553       -19.8521
  30   2.0000      -0.700525       -19.0622
  31   2.0000      -0.689394       -18.7594
  32   2.0000      -0.668023       -18.1778
  33   2.0000      -0.642637       -17.4870
  34   2.0000      -0.613026       -16.6813
  35   2.0000      -0.594204       -16.1691
  36   2.0000      -0.586392       -15.9565
  37   2.0000      -0.577980       -15.7276
  38   2.0000      -0.569096       -15.4859
  39   2.0000      -0.565469       -15.3872
  40   2.0000      -0.546897       -14.8818
  41   2.0000      -0.539171       -14.6716
  42   2.0000      -0.536090       -14.5877
  43   2.0000      -0.533442       -14.5157
  44   2.0000      -0.530965       -14.4483
  45   2.0000      -0.507096       -13.7988
  46   2.0000      -0.488319       -13.2878
  47   2.0000      -0.470073       -12.7913
  48   2.0000      -0.464215       -12.6319
  49   2.0000      -0.456202       -12.4139
  50   2.0000      -0.450235       -12.2515
  51   2.0000      -0.432836       -11.7781
  52   2.0000      -0.368516       -10.0278
  53   2.0000      -0.355572        -9.6756
  54   2.0000      -0.354774        -9.6539
  55   2.0000      -0.327787        -8.9195
  56   2.0000      -0.323905        -8.8139
  57   2.0000      -0.321241        -8.7414
  58   0.0000       0.050678         1.3790
  59   0.0000       0.057183         1.5560
  60   0.0000       0.063896         1.7387
  61   0.0000       0.067446         1.8353
  62   0.0000       0.112955         3.0737

MULLIKEN ATOMIC CHARGES
-----------------------
   0 C :   -0.127520
   1 C :   -0.127550
   2 H :    0.172781
   3 H :    0.172816
   4 C :    0.230889
   5 C :   -0.245214
   6 C :   -0.277375
   7 C :   -0.075994
   8 H :    0.154534
   9 C :   -0.097237
  10 H :    0.136517
  11 C :   -0.149199
  12 H :    0.130624
  13 H :    0.128273
  14 H :    0.127963
  15 C :    0.230836
  16 C :   -0.245414
  17 C :   -0.277225
  18 C :   -0.075736
  19 H :    0.154437
  20 C :   -0.097315
  21 H :    0.136614
  22 C :   -0.149269
  23 H :    0.130648
  24 H :    0.128249
  25 H :    0.127953
  26 C :   -0.189962
  27 N :   -0.014083
  28 N :   -0.014040
Sum of atomic charges:   -0.0000000

LOEWDIN ATOMIC CHARGES
----------------------
   0 C :   -0.201269
   1 C :   -0.201265
   2 H :    0.141846
   3 H :    0.141846
   4 C :   -0.153792
   5 C :   -0.099201
   6 C :   -0.118646
   7 C :   -0.133087
   8 H :    0.156540
   9 C :   -0.138831
  10 H :    0.147344
  11 C :   -0.146355
  12 H :    0.146758
  13 H :    0.145782
  14 H :    0.144232
  15 C :   -0.153791
  16 C :   -0.099200
  17 C :   -0.118646
  18 C :   -0.133088
  19 H :    0.156540
  20 C :   -0.138831
  21 H :    0.147344
  22 C :   -0.146356
  23 H :    0.146758
  24 H :    0.145782
  25 H :    0.144232
  26 C :   -0.285198
  27 N :    0.251276
  28 N :    0.251277

  Mayer bond orders larger than 0.100000
B(  0-C ,  1-C ) :   1.7991 B(  0-C ,  2-H ) :   0.9326 B(  0-C , 27-N ) :   1.0920
B(  1-C ,  3-H ) :   0.9325 B(  1-C , 28-N ) :   1.0919 B(  4-C ,  5-C ) :   1.4289
B(  4-C ,  6-C ) :   1.3889 B(  4-C , 27-N ) :   0.9772 B(  5-C ,  7-C ) :   1.4492
B(  5-C ,  8-H ) :   0.9453 B(  6-C ,  9-C ) :   1.4651 B(  6-C , 10-H ) :   0.9522
B(  7-C , 11-C ) :   1.3998 B(  7-C , 12-H ) :   0.9773 B(  9-C , 11-C ) :   1.4283
B(  9-C , 13-H ) :   0.9753 B( 11-C , 14-H ) :   0.9763 B( 15-C , 16-C ) :   1.4289
B( 15-C , 17-C ) :   1.3892 B( 15-C , 28-N ) :   0.9772 B( 16-C , 18-C ) :   1.4490
B( 16-C , 19-H ) :   0.9455 B( 17-C , 20-C ) :   1.4652 B( 17-C , 21-H ) :   0.9520
B( 18-C , 22-C ) :   1.3999 B( 18-C , 23-H ) :   0.9773 B( 20-C , 22-C ) :   1.4282
B( 20-C , 24-H ) :   0.9753 B( 22-C , 25-H ) :   0.9763 B( 26-C , 27-N ) :   1.1504
B( 26-C , 28-N ) :   1.1504

Dispersion correction           -0.005836870
FINAL SINGLE POINT ENERGY      -688.334843786356

DIPOLE MOMENT
-------------
                                X             Y             Z
Electronic contribution:      0.00001      -0.00000      -0.87540
Nuclear contribution   :     -0.00001       0.00001      -0.00467
                        -----------------------------------------
Total Dipole Moment    :     -0.00000       0.00000      -0.88008
                        -----------------------------------------
Magnitude (a.u.)       :      0.88008
Magnitude (Debye)      :      2.23698

Dispersion correction in the Hessian             ... Starting D4

VIBRATIONAL FREQUENCIES
-----------------------

Scaling factor for frequencies =  1.000000000  (already applied!)

   0:         0.00 cm**-1
   1:         0.00 cm**-1
   2:         0.00 cm**-1
   3:         0.00 cm**-1
   4:         0.00 cm**-1
   5:         0.00 cm**-1
   6:        19.44 cm**-1
   7:        35.72 cm**-1
   8:        74.55 cm**-1
   9:        90.24 cm**-1
  10:       133.95 cm**-1
  11:       179.02 cm**-1
  12:       259.49 cm**-1
  13:       292.34 cm**-1
  14:       311.01 cm**-1
  15:       419.18 cm**-1
  16:       423.48 cm**-1
  17:       430.00 cm**-1
  18:       432.48 cm**-1
  19:       489.04 cm**-1
  20:       535.41 cm**-1
  21:       567.30 cm**-1
  22:       631.70 cm**-1
  23:       634.71 cm**-1
  24:       652.49 cm**-1
  25:       659.60 cm**-1
  26:       695.54 cm**-1
  27:       720.11 cm**-1
  28:       720.43 cm**-1
  29:       730.22 cm**-1
  30:       748.85 cm**-1
  31:       797.24 cm**-1
  32:       798.51 cm**-1
  33:       868.48 cm**-1
  34:       868.59 cm**-1
  35:       871.91 cm**-1
  36:       952.87 cm**-1
  37:       953.31 cm**-1
  38:       973.42 cm**-1
  39:       977.71 cm**-1
  40:      1004.80 cm**-1
  41:      1004.99 cm**-1
  42:      1023.30 cm**-1
  43:      1023.45 cm**-1
  44:      1030.77 cm**-1
  45:      1031.17 cm**-1
  46:      1064.30 cm**-1
  47:      1066.98 cm**-1
  48:      1100.90 cm**-1
  49:      1101.86 cm**-1
  50:      1121.82 cm**-1
  51:      1124.05 cm**-1
  52:      1144.50 cm**-1
  53:      1179.73 cm**-1
  54:      1180.15 cm**-1
  55:      1206.88 cm**-1
  56:      1206.91 cm**-1
  57:      1281.21 cm**-1
  58:      1297.66 cm**-1
  59:      1305.91 cm**-1
  60:      1326.93 cm**-1
  61:      1341.66 cm**-1
  62:      1368.08 cm**-1
  63:      1384.91 cm**-1
  64:      1426.28 cm**-1
  65:      1459.30 cm**-1
  66:      1513.73 cm**-1
  67:      1517.01 cm**-1
  68:      1560.06 cm**-1
  69:      1566.23 cm**-1
  70:      1650.38 cm**-1
  71:      1682.17 cm**-1
  72:      1687.80 cm**-1
  73:      1694.95 cm**-1
  74:      1698.66 cm**-1
  75:      3205.56 cm**-1
  76:      3205.62 cm**-1
  77:      3214.02 cm**-1
  78:      3214.06 cm**-1
  79:      3223.82 cm**-1
  80:      3223.92 cm**-1
  81:      3232.85 cm**-1
  82:      3232.93 cm**-1
  83:      3246.07 cm**-1
  84:      3246.08 cm**-1
  85:      3300.25 cm**-1
  86:      3321.53 cm**-1

IR SPECTRUM
-----------

 Mode   freq       eps      Int      T**2         TX        TY        TZ
       cm**-1   L/(mol*cm) km/mol    a.u.
----------------------------------------------------------------------------
  6:     19.44   0.000001    0.00  0.000014  ( 0.000001 -0.000002 -0.003700)
  7:     35.72   0.000090    0.46  0.000788  (-0.003606 -0.027832  0.000000)
  8:     74.55   0.000046    0.23  0.000191  (-0.000000 -0.000000 -0.013824)
  9:     90.24   0.002211   11.17  0.007644  (-0.074948  0.045026 -0.000000)
 10:    133.95   0.000004    0.02  0.000010  ( 0.000000 -0.000000 -0.003205)
 11:    179.02   0.000301    1.52  0.000524  (-0.008923 -0.021092 -0.000000)
 12:    259.49   0.000028    0.14  0.000034  ( 0.000000 -0.000000 -0.005844)
 13:    292.34   0.001117    5.65  0.001193  (-0.013213  0.031910 -0.000001)
 14:    311.01   0.000020    0.10  0.000020  ( 0.000000 -0.000000  0.004506)
 15:    419.18   0.000000    0.00  0.000000  ( 0.000433  0.000028  0.000000)
 16:    423.48   0.000001    0.00  0.000001  (-0.000001 -0.000001 -0.000725)
 17:    430.00   0.000140    0.71  0.000102  ( 0.001012  0.010024  0.000000)
 18:    432.48   0.000006    0.03  0.000004  (-0.000000  0.000000 -0.002013)
 19:    489.04   0.001271    6.42  0.000811  (-0.017316  0.022607 -0.000000)
 20:    535.41   0.000956    4.83  0.000557  ( 0.000001  0.000000  0.023605)
 21:    567.30   0.003302   16.69  0.001816  (-0.035326 -0.023841  0.000001)
 22:    631.70   0.000360    1.82  0.000178  (-0.004806  0.012435 -0.000000)
 23:    634.71   0.000045    0.23  0.000022  (-0.000000 -0.000000 -0.004701)
 24:    652.49   0.000768    3.88  0.000367  (-0.014625  0.012382 -0.000000)
 25:    659.60   0.000384    1.94  0.000182  ( 0.000000 -0.000001 -0.013485)
 26:    695.54   0.000437    2.21  0.000196  (-0.000000 -0.000000 -0.014006)
 27:    720.11   0.002820   14.25  0.001222  ( 0.000594 -0.000118  0.034955)
 28:    720.43   0.010152   51.30  0.004397  ( 0.065038 -0.012932 -0.000318)
 29:    730.22   0.009695   49.00  0.004143  (-0.025417 -0.059137 -0.000000)
 30:    748.85   0.011638   58.81  0.004850  (-0.069610  0.002015 -0.000000)
 31:    797.24   0.003048   15.40  0.001193  (-0.000069  0.000022 -0.034541)
 32:    798.51   0.013493   68.19  0.005273  (-0.069041  0.022501  0.000035)
 33:    868.48   0.000058    0.29  0.000021  (-0.004263  0.001587  0.000035)
 34:    868.59   0.000028    0.14  0.000010  ( 0.000048 -0.000019  0.003149)
 35:    871.91   0.000018    0.09  0.000006  ( 0.000000  0.000000 -0.002508)
 36:    952.87   0.000186    0.94  0.000061  ( 0.000048 -0.000031  0.007811)
 37:    953.31   0.001408    7.12  0.000461  ( 0.018128 -0.011501 -0.000023)
 38:    973.42   0.006844   34.59  0.002194  (-0.003378 -0.046718  0.000000)
 39:    977.71   0.000412    2.08  0.000131  ( 0.000000  0.000001  0.011463)
 40:   1004.80   0.000058    0.29  0.000018  ( 0.003308 -0.002679 -0.000057)
 41:   1004.99   0.000030    0.15  0.000009  ( 0.000062 -0.000052  0.003041)
 42:   1023.30   0.000178    0.90  0.000054  ( 0.005802 -0.004554 -0.000030)
 43:   1023.45   0.000002    0.01  0.000001  (-0.000212  0.000167 -0.000775)
 44:   1030.77   0.000001    0.00  0.000000  (-0.000356 -0.000379  0.000001)
 45:   1031.17   0.000006    0.03  0.000002  ( 0.000001 -0.000000  0.001376)
 46:   1064.30   0.000115    0.58  0.000034  (-0.000000 -0.000000  0.005795)
 47:   1066.98   0.001531    7.74  0.000448  ( 0.001038 -0.021133 -0.000000)
 48:   1100.90   0.000923    4.66  0.000262  ( 0.000000  0.000002  0.016174)
 49:   1101.86   0.002235   11.29  0.000633  (-0.007730 -0.023941  0.000002)
 50:   1121.82   0.003032   15.32  0.000844  (-0.000002  0.000001  0.029044)
 51:   1124.05   0.000937    4.74  0.000260  ( 0.011611 -0.011198  0.000003)
 52:   1144.50   0.001514    7.65  0.000413  ( 0.000000 -0.000000  0.020315)
 53:   1179.73   0.000043    0.22  0.000011  (-0.000000 -0.000001 -0.003387)
 54:   1180.15   0.000080    0.40  0.000021  ( 0.001301  0.004407 -0.000001)
 55:   1206.88   0.000004    0.02  0.000001  (-0.000888 -0.000457  0.000005)
 56:   1206.91   0.000018    0.09  0.000005  ( 0.000002  0.000001  0.002159)
 57:   1281.21   0.000851    4.30  0.000207  ( 0.002662  0.014149  0.000000)
 58:   1297.66   0.000868    4.38  0.000209  (-0.000000  0.000000 -0.014444)
 59:   1305.91   0.020575  103.98  0.004917  (-0.000351  0.070119  0.000000)
 60:   1326.93   0.001620    8.19  0.000381  (-0.002457 -0.019363 -0.000000)
 61:   1341.66   0.001283    6.48  0.000298  (-0.000000 -0.000000  0.017273)
 62:   1368.08   0.003679   18.59  0.000839  (-0.000017  0.028970  0.000000)
 63:   1384.91   0.000658    3.33  0.000148  ( 0.000000 -0.000000 -0.012176)
 64:   1426.28   0.000145    0.73  0.000032  ( 0.000000 -0.000000  0.005624)
 65:   1459.30   0.026710  134.98  0.005712  ( 0.000336  0.075575 -0.000000)
 66:   1513.73   0.000471    2.38  0.000097  ( 0.008508 -0.004974 -0.000001)
 67:   1517.01   0.000765    3.87  0.000157  (-0.000000 -0.000000 -0.012549)
 68:   1560.06   0.051048  257.97  0.010211  (-0.000336  0.101050  0.000000)
 69:   1566.23   0.001571    7.94  0.000313  ( 0.000000 -0.000000  0.017693)
 70:   1650.38   0.001729    8.74  0.000327  (-0.000000  0.000000 -0.018079)
 71:   1682.17   0.001136    5.74  0.000211  ( 0.008630  0.011670 -0.000000)
 72:   1687.80   0.000290    1.47  0.000054  ( 0.000000 -0.000003 -0.007326)
 73:   1694.95   0.025556  129.15  0.004705  ( 0.001434 -0.068580 -0.000001)
 74:   1698.66   0.001637    8.27  0.000301  (-0.000000  0.000005 -0.017343)
 75:   3205.56   0.000544    2.75  0.000053  ( 0.000444 -0.007263  0.000002)
 76:   3205.62   0.000050    0.25  0.000005  (-0.000000  0.000007  0.002198)
 77:   3214.02   0.001634    8.26  0.000159  ( 0.006177  0.010979  0.000056)
 78:   3214.06   0.000895    4.52  0.000087  ( 0.000038  0.000067 -0.009324)
 79:   3223.82   0.003016   15.24  0.000292  (-0.008361  0.014902 -0.000106)
 80:   3223.92   0.003977   20.10  0.000385  (-0.000045  0.000082  0.019621)
 81:   3232.85   0.003856   19.49  0.000372  (-0.004402 -0.018783 -0.000000)
 82:   3232.93   0.000036    0.18  0.000003  (-0.000003 -0.000009  0.001858)
 83:   3246.07   0.000033    0.17  0.000003  ( 0.000267 -0.000634 -0.001636)
 84:   3246.08   0.000358    1.81  0.000034  ( 0.002275 -0.005407  0.000192)
 85:   3300.25   0.000879    4.44  0.000083  (-0.000239  0.009111  0.000000)
 86:   3321.53   0.000000    0.00  0.000000  (-0.000000 -0.000000  0.000160)

--------------------------
THERMOCHEMISTRY AT 298.15K
--------------------------

Temperature         ... 298.15 K
Pressure            ... 1.00 atm
Total Mass          ... 220.28 AMU

Throughout the following assumptions are being made:
  (1) The electronic state is orbitally nondegenerate
  (2) There are no thermally accessible electronically excited states
  (3) Hindered rotations indicated by low frequency modes are not
      treated as such but are treated as vibrations and this may
      cause some error
  (4) All equations used are the standard statistical mechanics
      equations for an ideal gas
  (5) All vibrations are strictly harmonic

freq.      19.44  E(vib)   ...       0.57
freq.      35.72  E(vib)   ...       0.54
freq.      74.55  E(vib)   ...       0.49
freq.      90.24  E(vib)   ...       0.47
freq.     133.95  E(vib)   ...       0.42
freq.     179.02  E(vib)   ...       0.37
freq.     259.49  E(vib)   ...       0.30
freq.     292.34  E(vib)   ...       0.27
freq.     311.01  E(vib)   ...       0.26
freq.     419.18  E(vib)   ...       0.18
freq.     423.48  E(vib)   ...       0.18
freq.     430.00  E(vib)   ...       0.18
freq.     432.48  E(vib)   ...       0.18
freq.     489.04  E(vib)   ...       0.15
freq.     535.41  E(vib)   ...       0.13
freq.     567.30  E(vib)   ...       0.11
freq.     631.70  E(vib)   ...       0.09
freq.     634.71  E(vib)   ...       0.09
freq.     652.49  E(vib)   ...       0.08
freq.     659.60  E(vib)   ...       0.08
freq.     695.54  E(vib)   ...       0.07
freq.     720.11  E(vib)   ...       0.07
freq.     720.43  E(vib)   ...       0.07
freq.     730.22  E(vib)   ...       0.06
freq.     748.85  E(vib)   ...       0.06
freq.     797.24  E(vib)   ...       0.05
freq.     798.51  E(vib)   ...       0.05
freq.     868.48  E(vib)   ...       0.04
freq.     868.59  E(vib)   ...       0.04
freq.     871.91  E(vib)   ...       0.04
freq.     952.87  E(vib)   ...       0.03
freq.     953.31  E(vib)   ...       0.03
freq.     973.42  E(vib)   ...       0.03
freq.     977.71  E(vib)   ...       0.03
freq.    1004.80  E(vib)   ...       0.02
freq.    1004.99  E(vib)   ...       0.02
freq.    1023.30  E(vib)   ...       0.02
freq.    1023.45  E(vib)   ...       0.02
freq.    1030.77  E(vib)   ...       0.02
freq.    1031.17  E(vib)   ...       0.02
freq.    1064.30  E(vib)   ...       0.02
freq.    1066.98  E(vib)   ...       0.02
freq.    1100.90  E(vib)   ...       0.02
freq.    1101.86  E(vib)   ...       0.02
freq.    1121.82  E(vib)   ...       0.01
freq.    1124.05  E(vib)   ...       0.01
freq.    1144.50  E(vib)   ...       0.01
freq.    1179.73  E(vib)   ...       0.01
freq.    1180.15  E(vib)   ...       0.01
freq.    1206.88  E(vib)   ...       0.01
freq.    1206.91  E(vib)   ...       0.01
freq.    1281.21  E(vib)   ...       0.01
freq.    1297.66  E(vib)   ...       0.01
freq.    1305.91  E(vib)   ...       0.01
freq.    1326.93  E(vib)   ...       0.01
freq.    1341.66  E(vib)   ...       0.01
freq.    1368.08  E(vib)   ...       0.01
freq.    1384.91  E(vib)   ...       0.00
freq.    1426.28  E(vib)   ...       0.00
freq.    1459.30  E(vib)   ...       0.00
freq.    1513.73  E(vib)   ...       0.00
freq.    1517.01  E(vib)   ...       0.00
freq.    1560.06  E(vib)   ...       0.00
freq.    1566.23  E(vib)   ...       0.00
freq.    1650.38  E(vib)   ...       0.00
freq.    1682.17  E(vib)   ...       0.00
freq.    1687.80  E(vib)   ...       0.00
freq.    1694.95  E(vib)   ...       0.00
freq.    1698.66  E(vib)   ...       0.00
freq.    3205.56  E(vib)   ...       0.00
freq.    3205.62  E(vib)   ...       0.00
freq.    3214.02  E(vib)   ...       0.00
freq.    3214.06  E(vib)   ...       0.00
freq.    3223.82  E(vib)   ...       0.00
freq.    3223.92  E(vib)   ...       0.00
freq.    3232.85  E(vib)   ...       0.00
freq.    3232.93  E(vib)   ...       0.00
freq.    3246.07  E(vib)   ...       0.00
freq.    3246.08  E(vib)   ...       0.00
freq.    3300.25  E(vib)   ...       0.00
freq.    3321.53  E(vib)   ...       0.00

------------
INNER ENERGY
------------

The inner energy is: U= E(el) + E(ZPE) + E(vib) + E(rot) + E(trans)
    E(el)   - is the total energy from the electronic structure calculation
              = E(kin-el) + E(nuc-el) + E(el-el) + E(nuc-nuc)
    E(ZPE)  - the the zero temperature vibrational energy from the frequency calculation
    E(vib)  - the the finite temperature correction to E(ZPE) due to population
              of excited vibrational states
    E(rot)  - is the rotational thermal energy
    E(trans)- is the translational thermal energy

Summary of contributions to the inner energy U:
Electronic energy                ...   -688.33484379 Eh
Zero point energy                ...      0.23509453 Eh     147.52 kcal/mol
Thermal vibrational correction   ...      0.00976388 Eh       6.13 kcal/mol
Thermal rotational correction    ...      0.00141627 Eh       0.89 kcal/mol
Thermal translational correction ...      0.00141627 Eh       0.89 kcal/mol
-----------------------------------------------------------------------
Total thermal energy                   -688.08715283 Eh

Summary of corrections to the electronic energy:
(perhaps to be used in another calculation)
Total thermal correction                  0.01259642 Eh       7.90 kcal/mol
Non-thermal (ZPE) correction              0.23509453 Eh     147.52 kcal/mol
-----------------------------------------------------------------------
Total correction                          0.24769096 Eh     155.43 kcal/mol

--------
ENTHALPY
--------

The enthalpy is H = U + kB*T
                kB is Boltzmann's constant
Total free energy                 ...   -688.08715283 Eh
Thermal Enthalpy correction       ...      0.00094421 Eh       0.59 kcal/mol
-----------------------------------------------------------------------
Total Enthalpy                    ...   -688.08620862 Eh

Note: Rotational entropy computed according to Herzberg
Infrared and Raman Spectra, Chapter V,1, Van Nostrand Reinhold, 1945
Point Group:  C2, Symmetry Number:   2
Rotational constants in cm-1:     0.055350     0.006958     0.006375

Vibrational entropy computed according to the QRRHO of S. Grimme
Chem.Eur.J. 2012 18 9955

-------
ENTROPY
-------

The entropy contributions are T*S = T*(S(el)+S(vib)+S(rot)+S(trans))
     S(el)   - electronic entropy
     S(vib)  - vibrational entropy
     S(rot)  - rotational entropy
     S(trans)- translational entropy
The entropies will be listed as multiplied by the temperature to get

                             ****ORCA TERMINATED NORMALLY****
TOTAL RUN TIME: 0 days 1 hours 41 minutes 20 seconds 674 msec
