                         Program Version 5.0.4 -  RELEASE  -
|  1> # ORCA 5.0.4 - /users/bwb16179/postgrad/2024_06/pKa_Reviewer_Comments/Gas_Z=0/8_deprot.inp # write input file
|  2> # Basic Mode
|  3> #
|  4> ! Opt Freq wB97X Def2-TZVP D4 SlowConv TightSCF Defgrid2 Def2/J RIJCOSX
|  5>
|  6> %PAL NPROCS 4 END
|  7>
|  8> %maxcore 4500
|  9>
| 10> %geom
| 11> Maxiter 150
| 12> END
| 13>
| 14> * xyzfile 0 1 8_deprot.xyz
| 15>
| 16>                          ****END OF INPUT****
 Total Charge           Charge          ....    0
 Multiplicity           Mult            ....    1
 Number of Electrons    NEL             ....  148
Dispersion correction           -0.009664032
FINAL SINGLE POINT ENERGY      -845.619891436816
Dispersion correction            ... Starting D4
                    ***********************HURRAY********************

CARTESIAN COORDINATES (ANGSTROEM)
---------------------------------
  C      0.419419    0.830322   -1.703166
  C      0.298247   -0.501902   -1.837798
  C     -0.116370   -0.007892    0.358223
  H      0.664238    1.597568   -2.418753
  H      0.412883   -1.143969   -2.695306
  N      0.164260    1.105309   -0.368656
  N     -0.027715   -0.985357   -0.579987
  C      0.215979    2.420595    0.190541
  C     -0.870584    3.273455    0.009751
  C      1.354674    2.802511    0.897909
  C     -0.790020    4.554180    0.543932
  C      1.395423    4.089118    1.420492
  C      0.334534    4.960706    1.241411
  H     -1.624981    5.234094    0.416485
  H      2.271188    4.406839    1.975290
  H      0.382150    5.961539    1.653977
  C     -0.222606   -2.373234   -0.294175
  C     -1.495342   -2.919008   -0.444538
  C      0.870141   -3.129354    0.124869
  C     -1.658323   -4.273082   -0.177503
  C      0.666704   -4.479080    0.385122
  C     -0.586005   -5.048426    0.230477
  H     -2.640315   -4.719764   -0.286283
  H      1.502441   -5.086092    0.715127
  H     -0.729579   -6.102729    0.435596
  C      2.492966    1.843789    1.100622
  H      2.173580    0.997802    1.712639
  H      2.844869    1.436218    0.150204
  H      3.329997    2.337502    1.593662
  C      2.217502   -2.492515    0.316780
  H      2.557029   -1.987893   -0.590355
  H      2.172178   -1.737170    1.104484
  H      2.961697   -3.238835    0.593058
  C     -2.100312    2.813218   -0.721207
  H     -1.898392    2.638970   -1.780573
  H     -2.467832    1.872372   -0.306291
  H     -2.892320    3.557725   -0.646527
  C     -2.656672   -2.058538   -0.855322
  H     -2.810808   -1.255692   -0.131153
  H     -2.485454   -1.586807   -1.825408
  H     -3.570611   -2.648325   -0.918787

 Multiplicity           Mult            ....    1
 Number of Electrons    NEL             ....  148
 Basis Dimension        Dim             ....  771

ORBITAL ENERGIES
----------------

  NO   OCC          E(Eh)            E(eV)
   0   2.0000     -14.441169      -392.9642
   1   2.0000     -14.441017      -392.9600
   2   2.0000     -10.292454      -280.0719
   3   2.0000     -10.292224      -280.0656
   4   2.0000     -10.287411      -279.9347
   5   2.0000     -10.286604      -279.9127
   6   2.0000     -10.271687      -279.5068
   7   2.0000     -10.271494      -279.5016
   8   2.0000     -10.271407      -279.4992
   9   2.0000     -10.270739      -279.4810
  10   2.0000     -10.265792      -279.3464
  11   2.0000     -10.258800      -279.1561
  12   2.0000     -10.258436      -279.1462
  13   2.0000     -10.254595      -279.0417
  14   2.0000     -10.254588      -279.0415
  15   2.0000     -10.254525      -279.0398
  16   2.0000     -10.254039      -279.0266
  17   2.0000     -10.251604      -278.9603
  18   2.0000     -10.249977      -278.9161
  19   2.0000     -10.249672      -278.9077
  20   2.0000     -10.247388      -278.8456
  21   2.0000      -1.164466       -31.6867
  22   2.0000      -1.065250       -28.9869
  23   2.0000      -1.004346       -27.3296
  24   2.0000      -0.983519       -26.7629
  25   2.0000      -0.920704       -25.0536
  26   2.0000      -0.920302       -25.0427
  27   2.0000      -0.912965       -24.8430
  28   2.0000      -0.880715       -23.9655
  29   2.0000      -0.876831       -23.8598
  30   2.0000      -0.836292       -22.7567
  31   2.0000      -0.818902       -22.2835
  32   2.0000      -0.809646       -22.0316
  33   2.0000      -0.808579       -22.0026
  34   2.0000      -0.764527       -20.8038
  35   2.0000      -0.740486       -20.1496
  36   2.0000      -0.703383       -19.1400
  37   2.0000      -0.702170       -19.1070
  38   2.0000      -0.698948       -19.0193
  39   2.0000      -0.682321       -18.5669
  40   2.0000      -0.653617       -17.7858
  41   2.0000      -0.619020       -16.8444
  42   2.0000      -0.611510       -16.6400
  43   2.0000      -0.597877       -16.2691
  44   2.0000      -0.595500       -16.2044
  45   2.0000      -0.563340       -15.3292
  46   2.0000      -0.558222       -15.1900
  47   2.0000      -0.554126       -15.0785
  48   2.0000      -0.538237       -14.6462
  49   2.0000      -0.534497       -14.5444
  50   2.0000      -0.531428       -14.4609
  51   2.0000      -0.525011       -14.2863
  52   2.0000      -0.524403       -14.2697
  53   2.0000      -0.523981       -14.2582
  54   2.0000      -0.521149       -14.1812
  55   2.0000      -0.514173       -13.9913
  56   2.0000      -0.513562       -13.9747
  57   2.0000      -0.513007       -13.9596
  58   2.0000      -0.510899       -13.9023
  59   2.0000      -0.482009       -13.1161
  60   2.0000      -0.479129       -13.0378
  61   2.0000      -0.461875       -12.5683
  62   2.0000      -0.459022       -12.4906
  63   2.0000      -0.454256       -12.3609
  64   2.0000      -0.451396       -12.2831
  65   2.0000      -0.444264       -12.0890
  66   2.0000      -0.443430       -12.0663
  67   2.0000      -0.386933       -10.5290
  68   2.0000      -0.344888        -9.3849
  69   2.0000      -0.339304        -9.2329
  70   2.0000      -0.336093        -9.1455
  71   2.0000      -0.334299        -9.0967
  72   2.0000      -0.330687        -8.9984
  73   2.0000      -0.320141        -8.7115
  74   0.0000       0.062190         1.6923
  75   0.0000       0.068353         1.8600
  76   0.0000       0.072435         1.9710
  77   0.0000       0.073716         2.0059
  78   0.0000       0.103455         2.8151

MULLIKEN ATOMIC CHARGES
-----------------------
   0 C :   -0.121762
   1 C :   -0.145766
   2 C :   -0.227767
   3 H :    0.171349
   4 H :    0.167618
   5 N :    0.078302
   6 N :    0.084001
   7 C :    0.096244
   8 C :   -0.055881
   9 C :   -0.027327
  10 C :   -0.139066
  11 C :   -0.137452
  12 C :   -0.136872
  13 H :    0.114572
  14 H :    0.114959
  15 H :    0.122864
  16 C :    0.105658
  17 C :   -0.048274
  18 C :   -0.045870
  19 C :   -0.132657
  20 C :   -0.134245
  21 C :   -0.138912
  22 H :    0.114544
  23 H :    0.114873
  24 H :    0.123172
  25 C :   -0.389056
  26 H :    0.154584
  27 H :    0.128200
  28 H :    0.118892
  29 C :   -0.373544
  30 H :    0.126759
  31 H :    0.145539
  32 H :    0.120191
  33 C :   -0.359693
  34 H :    0.124987
  35 H :    0.144230
  36 H :    0.121706
  37 C :   -0.375782
  38 H :    0.150328
  39 H :    0.126358
  40 H :    0.119994
Sum of atomic charges:   -0.0000000

LOEWDIN ATOMIC CHARGES
----------------------
   0 C :   -0.211829
   1 C :   -0.213405
   2 C :   -0.312658
   3 H :    0.143315
   4 H :    0.143388
   5 N :    0.254024
   6 N :    0.254552
   7 C :   -0.112910
   8 C :   -0.133915
   9 C :   -0.129628
  10 C :   -0.121704
  11 C :   -0.120073
  12 C :   -0.136604
  13 H :    0.145848
  14 H :    0.146141
  15 H :    0.145219
  16 C :   -0.113473
  17 C :   -0.132008
  18 C :   -0.131162
  19 C :   -0.120893
  20 C :   -0.120728
  21 C :   -0.136128
  22 H :    0.145929
  23 H :    0.145991
  24 H :    0.145269
  25 C :   -0.245190
  26 H :    0.134875
  27 H :    0.128903
  28 H :    0.124685
  29 C :   -0.243228
  30 H :    0.128511
  31 H :    0.134569
  32 H :    0.125224
  33 C :   -0.243026
  34 H :    0.127550
  35 H :    0.133786
  36 H :    0.126070
  37 C :   -0.243765
  38 H :    0.134974
  39 H :    0.128157
  40 H :    0.125349

  Mayer bond orders larger than 0.100000
B(  0-C ,  1-C ) :   1.6517 B(  0-C ,  3-H ) :   0.9723 B(  0-C ,  5-N ) :   1.0708
B(  1-C ,  4-H ) :   0.9796 B(  1-C ,  6-N ) :   1.0710 B(  2-C ,  5-N ) :   1.1044
B(  2-C ,  6-N ) :   1.1106 B(  5-N ,  7-C ) :   0.8809 B(  6-N , 16-C ) :   0.8779
B(  7-C ,  8-C ) :   1.4482 B(  7-C ,  9-C ) :   1.4398 B(  8-C , 10-C ) :   1.4422
B(  8-C , 33-C ) :   0.9054 B(  9-C , 11-C ) :   1.4442 B(  9-C , 25-C ) :   0.8953
B( 10-C , 12-C ) :   1.3960 B( 10-C , 13-H ) :   0.9798 B( 11-C , 12-C ) :   1.3918
B( 11-C , 14-H ) :   0.9771 B( 12-C , 15-H ) :   0.9892 B( 16-C , 17-C ) :   1.4407
B( 16-C , 18-C ) :   1.4372 B( 17-C , 19-C ) :   1.4442 B( 17-C , 37-C ) :   0.9009
B( 18-C , 20-C ) :   1.4451 B( 18-C , 29-C ) :   0.9023 B( 19-C , 21-C ) :   1.3917
B( 19-C , 22-H ) :   0.9790 B( 20-C , 21-C ) :   1.3924 B( 20-C , 23-H ) :   0.9781
B( 21-C , 24-H ) :   0.9888 B( 25-C , 26-H ) :   0.9743 B( 25-C , 27-H ) :   0.9861
B( 25-C , 28-H ) :   0.9915 B( 29-C , 30-H ) :   0.9821 B( 29-C , 31-H ) :   0.9764
B( 29-C , 32-H ) :   0.9955 B( 33-C , 34-H ) :   0.9669 B( 33-C , 35-H ) :   0.9898
B( 33-C , 36-H ) :   0.9954 B( 37-C , 38-H ) :   0.9807 B( 37-C , 39-H ) :   0.9760
B( 37-C , 40-H ) :   0.9964

Dispersion correction           -0.009663295
FINAL SINGLE POINT ENERGY      -845.619893285006

DIPOLE MOMENT
-------------
                                X             Y             Z
Electronic contribution:      0.01935      -0.03347      -0.09378
Nuclear contribution   :      0.19117       0.10165      -0.83043
                        -----------------------------------------
Total Dipole Moment    :      0.21052       0.06818      -0.92421
                        -----------------------------------------
Magnitude (a.u.)       :      0.95033
Magnitude (Debye)      :      2.41555

Dispersion correction in the Hessian             ... Starting D4

VIBRATIONAL FREQUENCIES
-----------------------

Scaling factor for frequencies =  1.000000000  (already applied!)

   0:         0.00 cm**-1
   1:         0.00 cm**-1
   2:         0.00 cm**-1
   3:         0.00 cm**-1
   4:         0.00 cm**-1
   5:         0.00 cm**-1
   6:       -41.96 cm**-1 ***imaginary mode***
   7:        14.34 cm**-1
   8:        31.56 cm**-1
   9:        56.32 cm**-1
  10:        59.56 cm**-1
  11:        88.62 cm**-1
  12:        93.68 cm**-1
  13:       131.13 cm**-1
  14:       145.52 cm**-1
  15:       160.45 cm**-1
  16:       183.12 cm**-1
  17:       198.51 cm**-1
  18:       208.37 cm**-1
  19:       236.10 cm**-1
  20:       237.92 cm**-1
  21:       284.26 cm**-1
  22:       309.28 cm**-1
  23:       336.30 cm**-1
  24:       359.12 cm**-1
  25:       360.29 cm**-1
  26:       399.05 cm**-1
  27:       438.22 cm**-1
  28:       484.95 cm**-1
  29:       494.84 cm**-1
  30:       535.87 cm**-1
  31:       536.31 cm**-1
  32:       546.78 cm**-1
  33:       551.18 cm**-1
  34:       578.42 cm**-1
  35:       594.07 cm**-1
  36:       601.33 cm**-1
  37:       626.70 cm**-1
  38:       677.47 cm**-1
  39:       682.63 cm**-1
  40:       743.58 cm**-1
  41:       773.14 cm**-1
  42:       785.46 cm**-1
  43:       788.38 cm**-1
  44:       796.13 cm**-1
  45:       802.66 cm**-1
  46:       804.20 cm**-1
  47:       865.19 cm**-1
  48:       929.04 cm**-1
  49:       931.43 cm**-1
  50:       946.07 cm**-1
  51:       947.09 cm**-1
  52:       970.35 cm**-1
  53:       975.89 cm**-1
  54:      1003.90 cm**-1
  55:      1005.82 cm**-1
  56:      1019.26 cm**-1
  57:      1022.37 cm**-1
  58:      1066.51 cm**-1
  59:      1068.35 cm**-1
  60:      1069.33 cm**-1
  61:      1072.61 cm**-1
  62:      1076.40 cm**-1
  63:      1077.29 cm**-1
  64:      1096.79 cm**-1
  65:      1098.50 cm**-1
  66:      1108.59 cm**-1
  67:      1140.04 cm**-1
  68:      1151.10 cm**-1
  69:      1190.61 cm**-1
  70:      1193.77 cm**-1
  71:      1260.58 cm**-1
  72:      1291.57 cm**-1
  73:      1295.65 cm**-1
  74:      1296.32 cm**-1
  75:      1301.22 cm**-1
  76:      1308.19 cm**-1
  77:      1309.50 cm**-1
  78:      1316.16 cm**-1
  79:      1347.14 cm**-1
  80:      1409.46 cm**-1
  81:      1422.01 cm**-1
  82:      1424.74 cm**-1
  83:      1426.60 cm**-1
  84:      1432.61 cm**-1
  85:      1447.80 cm**-1
  86:      1480.81 cm**-1
  87:      1487.43 cm**-1
  88:      1487.89 cm**-1
  89:      1488.75 cm**-1
  90:      1489.04 cm**-1
  91:      1492.83 cm**-1
  92:      1496.06 cm**-1
  93:      1496.87 cm**-1
  94:      1535.06 cm**-1
  95:      1536.04 cm**-1
  96:      1549.27 cm**-1
  97:      1555.90 cm**-1
  98:      1637.16 cm**-1
  99:      1686.01 cm**-1
 100:      1687.47 cm**-1
 101:      1689.03 cm**-1
 102:      1690.00 cm**-1
 103:      3069.25 cm**-1
 104:      3069.39 cm**-1
 105:      3069.85 cm**-1
 106:      3070.40 cm**-1
 107:      3133.68 cm**-1
 108:      3134.38 cm**-1
 109:      3135.53 cm**-1
 110:      3135.68 cm**-1
 111:      3160.65 cm**-1
 112:      3160.90 cm**-1
 113:      3161.39 cm**-1
 114:      3161.53 cm**-1
 115:      3197.04 cm**-1
 116:      3197.24 cm**-1
 117:      3205.03 cm**-1
 118:      3205.29 cm**-1
 119:      3222.69 cm**-1
 120:      3223.40 cm**-1
 121:      3285.42 cm**-1
 122:      3307.53 cm**-1

IR SPECTRUM
-----------

 Mode   freq       eps      Int      T**2         TX        TY        TZ
       cm**-1   L/(mol*cm) km/mol    a.u.
----------------------------------------------------------------------------
  7:     14.34   0.000140    0.71  0.003053  ( 0.053164 -0.003683  0.014607)
  8:     31.56   0.000022    0.11  0.000221  ( 0.014271  0.001241 -0.003944)
  9:     56.32   0.000102    0.52  0.000567  ( 0.022388 -0.000389 -0.008104)
 10:     59.56   0.000883    4.46  0.004625  ( 0.064427 -0.001831  0.021692)
 11:     88.62   0.000009    0.05  0.000032  ( 0.005534  0.000836  0.000691)
 12:     93.68   0.000034    0.17  0.000115  (-0.002965  0.010089  0.001990)
 13:    131.13   0.000482    2.44  0.001148  ( 0.015592  0.007177 -0.029210)
 14:    145.52   0.000141    0.71  0.000303  (-0.001476  0.010335  0.013921)
 15:    160.45   0.000016    0.08  0.000031  ( 0.002613 -0.003468 -0.003422)
 16:    183.12   0.000154    0.78  0.000263  (-0.003429 -0.015747  0.001806)
 17:    198.51   0.000994    5.02  0.001562  (-0.007435 -0.038620 -0.003907)
 18:    208.37   0.000465    2.35  0.000696  ( 0.007407 -0.001694 -0.025262)
 19:    236.10   0.000011    0.05  0.000014  ( 0.003544  0.001186 -0.000366)
 20:    237.92   0.000006    0.03  0.000008  ( 0.002052 -0.000719  0.001700)
 21:    284.26   0.000575    2.90  0.000631  ( 0.000704 -0.024828 -0.003717)
 22:    309.28   0.001598    8.07  0.001612  ( 0.038484 -0.000342  0.011434)
 23:    336.30   0.001195    6.04  0.001109  ( 0.011840  0.003523 -0.030926)
 24:    359.12   0.000539    2.73  0.000469  (-0.006579 -0.000044  0.020628)
 25:    360.29   0.000109    0.55  0.000094  (-0.002368 -0.003141  0.008888)
 26:    399.05   0.000497    2.51  0.000389  ( 0.000149 -0.019697 -0.000900)
 27:    438.22   0.000025    0.12  0.000018  (-0.001259  0.003999 -0.000008)
 28:    484.95   0.000142    0.72  0.000091  ( 0.009332 -0.000444  0.001945)
 29:    494.84   0.000020    0.10  0.000013  ( 0.000067  0.003572  0.000157)
 30:    535.87   0.000038    0.19  0.000022  ( 0.003954 -0.002221  0.001287)
 31:    536.31   0.000018    0.09  0.000010  ( 0.003126  0.000004  0.000642)
 32:    546.78   0.000051    0.26  0.000029  ( 0.004636 -0.001720  0.002159)
 33:    551.18   0.000003    0.01  0.000002  ( 0.000136  0.000928  0.000815)
 34:    578.42   0.000180    0.91  0.000097  (-0.002314 -0.000473  0.009574)
 35:    594.07   0.000050    0.25  0.000026  (-0.001112 -0.000352  0.004986)
 36:    601.33   0.000037    0.19  0.000019  (-0.000187 -0.004324 -0.000751)
 37:    626.70   0.001653    8.35  0.000823  ( 0.002083  0.028506  0.002488)
 38:    677.47   0.001080    5.46  0.000498  (-0.020443  0.006474 -0.006140)
 39:    682.63   0.000021    0.11  0.000010  (-0.003034  0.000279  0.000699)
 40:    743.58   0.007820   39.52  0.003282  (-0.056185  0.006882 -0.008816)
 41:    773.14   0.000020    0.10  0.000008  ( 0.000179  0.000098  0.002807)
 42:    785.46   0.000969    4.90  0.000385  (-0.002282 -0.019441 -0.001303)
 43:    788.38   0.000154    0.78  0.000061  (-0.000165  0.001883  0.007571)
 44:    796.13   0.000487    2.46  0.000191  (-0.000645 -0.012199  0.006461)
 45:    802.66   0.014918   75.39  0.005800  (-0.022901  0.005186  0.072448)
 46:    804.20   0.003933   19.88  0.001526  ( 0.015148  0.032975 -0.014467)
 47:    865.19   0.000013    0.07  0.000005  (-0.001316 -0.001111 -0.001340)
 48:    929.04   0.000014    0.07  0.000005  (-0.001346  0.001154  0.001220)
 49:    931.43   0.000019    0.10  0.000006  ( 0.002145  0.000004  0.001307)
 50:    946.07   0.000534    2.70  0.000176  ( 0.012855  0.000695  0.003227)
 51:    947.09   0.000764    3.86  0.000252  ( 0.013973 -0.005098  0.005523)
 52:    970.35   0.007713   38.98  0.002480  (-0.004526 -0.049365 -0.004799)
 53:    975.89   0.000449    2.27  0.000144  ( 0.002122  0.000173 -0.011793)
 54:   1003.90   0.000046    0.23  0.000014  (-0.000871 -0.000105  0.003679)
 55:   1005.82   0.000022    0.11  0.000007  (-0.001027 -0.000244  0.002359)
 56:   1019.26   0.000435    2.20  0.000133  ( 0.001140  0.011483 -0.000022)
 57:   1022.37   0.000410    2.07  0.000125  (-0.000927 -0.010866 -0.002517)
 58:   1066.51   0.000020    0.10  0.000006  (-0.000449 -0.000360  0.002346)
 59:   1068.35   0.000048    0.24  0.000014  (-0.000946  0.000779 -0.003545)
 60:   1069.33   0.000034    0.17  0.000010  ( 0.000891  0.002357  0.001869)
 61:   1072.61   0.001184    5.98  0.000344  (-0.001879 -0.000521  0.018456)
 62:   1076.40   0.000630    3.18  0.000183  ( 0.003753  0.002314 -0.012777)
 63:   1077.29   0.000045    0.23  0.000013  ( 0.001756 -0.002921  0.001193)
 64:   1096.79   0.001055    5.33  0.000300  (-0.004162  0.001028  0.016788)
 65:   1098.50   0.000365    1.85  0.000104  (-0.002581 -0.003616  0.009166)
 66:   1108.59   0.001646    8.32  0.000463  (-0.004604 -0.000825  0.021012)
 67:   1140.04   0.003773   19.07  0.001033  (-0.002728 -0.031889 -0.002909)
 68:   1151.10   0.000046    0.23  0.000012  ( 0.000319  0.003362 -0.001046)
 69:   1190.61   0.000490    2.48  0.000128  ( 0.010443 -0.000827  0.004322)
 70:   1193.77   0.000535    2.71  0.000140  (-0.011500  0.000960 -0.002602)
 71:   1260.58   0.003434   17.35  0.000850  (-0.002912 -0.028850 -0.003054)
 72:   1291.57   0.001151    5.82  0.000278  ( 0.000381  0.016670  0.000232)
 73:   1295.65   0.000422    2.13  0.000102  ( 0.002639  0.009486  0.002187)
 74:   1296.32   0.000111    0.56  0.000027  (-0.004739 -0.001660 -0.001232)
 75:   1301.22   0.000004    0.02  0.000001  ( 0.000623  0.000051  0.000746)
 76:   1308.19   0.000413    2.08  0.000098  ( 0.009364  0.002715  0.001831)
 77:   1309.50   0.000532    2.69  0.000127  ( 0.010667 -0.002934  0.002092)
 78:   1316.16   0.004610   23.30  0.001093  ( 0.001475  0.032905  0.002870)
 79:   1347.14   0.001124    5.68  0.000260  (-0.000574 -0.001523  0.016052)
 80:   1409.46   0.000007    0.03  0.000002  ( 0.000197 -0.000864 -0.000861)
 81:   1422.01   0.000149    0.75  0.000033  ( 0.004070  0.003690  0.001614)
 82:   1424.74   0.000780    3.94  0.000171  ( 0.011738  0.000800  0.005700)
 83:   1426.60   0.000662    3.35  0.000145  ( 0.005026 -0.010927  0.000503)
 84:   1432.61   0.000061    0.31  0.000013  (-0.002450 -0.001102  0.002446)
 85:   1447.80   0.011825   59.76  0.002549  (-0.004394 -0.050082 -0.004614)
 86:   1480.81   0.001814    9.17  0.000382  (-0.004550  0.005500  0.018200)
 87:   1487.43   0.000162    0.82  0.000034  ( 0.002785  0.000818  0.005062)
 88:   1487.89   0.000265    1.34  0.000056  (-0.005828  0.000701 -0.004597)
 89:   1488.75   0.000381    1.93  0.000080  (-0.003577 -0.006069 -0.005498)
 90:   1489.04   0.005669   28.65  0.001188  ( 0.009738  0.005177 -0.032658)
 91:   1492.83   0.000096    0.49  0.000020  (-0.000056 -0.004343 -0.001112)
 92:   1496.06   0.001115    5.63  0.000233  (-0.001192 -0.001664  0.015111)
 93:   1496.87   0.002563   12.95  0.000534  (-0.022969  0.002476 -0.000778)
 94:   1535.06   0.000915    4.62  0.000186  (-0.011717  0.002517 -0.006511)
 95:   1536.04   0.005920   29.92  0.001203  (-0.033163  0.004385 -0.009143)
 96:   1549.27   0.036374  183.82  0.007327  ( 0.007981  0.084661  0.009769)
 97:   1555.90   0.001360    6.87  0.000273  (-0.003042 -0.005870  0.015132)
 98:   1637.16   0.000170    0.86  0.000032  ( 0.001901 -0.000516 -0.005335)
 99:   1686.01   0.000309    1.56  0.000057  (-0.000427 -0.007523 -0.000605)
100:   1687.47   0.000003    0.01  0.000001  ( 0.000493  0.000284  0.000452)
101:   1689.03   0.000013    0.07  0.000002  (-0.000059  0.000801 -0.001323)
102:   1690.00   0.001999   10.10  0.000369  (-0.018219  0.002650 -0.005496)
103:   3069.25   0.001153    5.83  0.000117  ( 0.008341  0.006771  0.001359)
104:   3069.39   0.010684   53.99  0.001086  (-0.030954  0.005153 -0.010078)
105:   3069.85   0.000777    3.93  0.000079  (-0.003511  0.000858  0.008119)
106:   3070.40   0.000967    4.89  0.000098  (-0.001799  0.009661  0.001298)
107:   3133.68   0.002769   13.99  0.000276  ( 0.006901  0.001052 -0.015066)
108:   3134.38   0.001975    9.98  0.000197  ( 0.003724  0.001089 -0.013474)
109:   3135.53   0.000415    2.09  0.000041  ( 0.000045  0.001326 -0.006285)
110:   3135.68   0.001075    5.43  0.000107  ( 0.002232 -0.002007 -0.009900)
111:   3160.65   0.003614   18.26  0.000357  ( 0.003954 -0.018459 -0.000684)
112:   3160.90   0.006533   33.01  0.000645  (-0.023887 -0.001429 -0.008505)
113:   3161.39   0.000910    4.60  0.000090  ( 0.006681  0.003998 -0.005403)
114:   3161.53   0.005032   25.43  0.000497  (-0.000847 -0.022138 -0.002430)
115:   3197.04   0.000031    0.16  0.000003  (-0.000800  0.001532 -0.000129)
116:   3197.24   0.000058    0.29  0.000006  (-0.000934  0.002177  0.000130)
117:   3205.03   0.003149   15.92  0.000307  (-0.015955  0.003556 -0.006280)
118:   3205.29   0.003438   17.37  0.000335  (-0.017680  0.001756 -0.004364)
119:   3222.69   0.004490   22.69  0.000435  ( 0.002890  0.020476 -0.002683)
120:   3223.40   0.003641   18.40  0.000353  ( 0.000941  0.017365  0.007077)
121:   3285.42   0.000561    2.83  0.000053  ( 0.000843  0.007204  0.000806)
122:   3307.53   0.000011    0.06  0.000001  (-0.000497  0.000146  0.000881)

--------------------------
THERMOCHEMISTRY AT 298.15K
--------------------------

Temperature         ... 298.15 K
Pressure            ... 1.00 atm
Total Mass          ... 276.38 AMU

Throughout the following assumptions are being made:
  (1) The electronic state is orbitally nondegenerate
  (2) There are no thermally accessible electronically excited states
  (3) Hindered rotations indicated by low frequency modes are not
      treated as such but are treated as vibrations and this may
      cause some error
  (4) All equations used are the standard statistical mechanics
      equations for an ideal gas
  (5) All vibrations are strictly harmonic

freq.      14.34  E(vib)   ...       0.57
freq.      31.56  E(vib)   ...       0.55
freq.      56.32  E(vib)   ...       0.52
freq.      59.56  E(vib)   ...       0.51
freq.      88.62  E(vib)   ...       0.47
freq.      93.68  E(vib)   ...       0.47
freq.     131.13  E(vib)   ...       0.42
freq.     145.52  E(vib)   ...       0.41
freq.     160.45  E(vib)   ...       0.39
freq.     183.12  E(vib)   ...       0.37
freq.     198.51  E(vib)   ...       0.35
freq.     208.37  E(vib)   ...       0.34
freq.     236.10  E(vib)   ...       0.32
freq.     237.92  E(vib)   ...       0.32
freq.     284.26  E(vib)   ...       0.28
freq.     309.28  E(vib)   ...       0.26
freq.     336.30  E(vib)   ...       0.24
freq.     359.12  E(vib)   ...       0.22
freq.     360.29  E(vib)   ...       0.22
freq.     399.05  E(vib)   ...       0.19
freq.     438.22  E(vib)   ...       0.17
freq.     484.95  E(vib)   ...       0.15
freq.     494.84  E(vib)   ...       0.14
freq.     535.87  E(vib)   ...       0.12
freq.     536.31  E(vib)   ...       0.12
freq.     546.78  E(vib)   ...       0.12
freq.     551.18  E(vib)   ...       0.12
freq.     578.42  E(vib)   ...       0.11
freq.     594.07  E(vib)   ...       0.10
freq.     601.33  E(vib)   ...       0.10
freq.     626.70  E(vib)   ...       0.09
freq.     677.47  E(vib)   ...       0.08
freq.     682.63  E(vib)   ...       0.08
freq.     743.58  E(vib)   ...       0.06
freq.     773.14  E(vib)   ...       0.05
freq.     785.46  E(vib)   ...       0.05
freq.     788.38  E(vib)   ...       0.05
freq.     796.13  E(vib)   ...       0.05
freq.     802.66  E(vib)   ...       0.05
freq.     804.20  E(vib)   ...       0.05
freq.     865.19  E(vib)   ...       0.04
freq.     929.04  E(vib)   ...       0.03
freq.     931.43  E(vib)   ...       0.03
freq.     946.07  E(vib)   ...       0.03
freq.     947.09  E(vib)   ...       0.03
freq.     970.35  E(vib)   ...       0.03
freq.     975.89  E(vib)   ...       0.03
freq.    1003.90  E(vib)   ...       0.02
freq.    1005.82  E(vib)   ...       0.02
freq.    1019.26  E(vib)   ...       0.02
freq.    1022.37  E(vib)   ...       0.02
freq.    1066.51  E(vib)   ...       0.02
freq.    1068.35  E(vib)   ...       0.02
freq.    1069.33  E(vib)   ...       0.02
freq.    1072.61  E(vib)   ...       0.02
freq.    1076.40  E(vib)   ...       0.02
freq.    1077.29  E(vib)   ...       0.02
freq.    1096.79  E(vib)   ...       0.02
freq.    1098.50  E(vib)   ...       0.02
freq.    1108.59  E(vib)   ...       0.02
freq.    1140.04  E(vib)   ...       0.01
freq.    1151.10  E(vib)   ...       0.01
freq.    1190.61  E(vib)   ...       0.01
freq.    1193.77  E(vib)   ...       0.01
freq.    1260.58  E(vib)   ...       0.01
freq.    1291.57  E(vib)   ...       0.01
freq.    1295.65  E(vib)   ...       0.01
freq.    1296.32  E(vib)   ...       0.01
freq.    1301.22  E(vib)   ...       0.01
freq.    1308.19  E(vib)   ...       0.01
freq.    1309.50  E(vib)   ...       0.01
freq.    1316.16  E(vib)   ...       0.01
freq.    1347.14  E(vib)   ...       0.01
freq.    1409.46  E(vib)   ...       0.00
freq.    1422.01  E(vib)   ...       0.00
freq.    1424.74  E(vib)   ...       0.00
freq.    1426.60  E(vib)   ...       0.00
freq.    1432.61  E(vib)   ...       0.00
freq.    1447.80  E(vib)   ...       0.00
freq.    1480.81  E(vib)   ...       0.00
freq.    1487.43  E(vib)   ...       0.00
freq.    1487.89  E(vib)   ...       0.00
freq.    1488.75  E(vib)   ...       0.00
freq.    1489.04  E(vib)   ...       0.00
freq.    1492.83  E(vib)   ...       0.00
freq.    1496.06  E(vib)   ...       0.00
freq.    1496.87  E(vib)   ...       0.00
freq.    1535.06  E(vib)   ...       0.00
freq.    1536.04  E(vib)   ...       0.00
freq.    1549.27  E(vib)   ...       0.00
freq.    1555.90  E(vib)   ...       0.00
freq.    1637.16  E(vib)   ...       0.00
freq.    1686.01  E(vib)   ...       0.00
freq.    1687.47  E(vib)   ...       0.00
freq.    1689.03  E(vib)   ...       0.00
freq.    1690.00  E(vib)   ...       0.00
freq.    3069.25  E(vib)   ...       0.00
freq.    3069.39  E(vib)   ...       0.00
freq.    3069.85  E(vib)   ...       0.00
freq.    3070.40  E(vib)   ...       0.00
freq.    3133.68  E(vib)   ...       0.00
freq.    3134.38  E(vib)   ...       0.00
freq.    3135.53  E(vib)   ...       0.00
freq.    3135.68  E(vib)   ...       0.00
freq.    3160.65  E(vib)   ...       0.00
freq.    3160.90  E(vib)   ...       0.00
freq.    3161.39  E(vib)   ...       0.00
freq.    3161.53  E(vib)   ...       0.00
freq.    3197.04  E(vib)   ...       0.00
freq.    3197.24  E(vib)   ...       0.00
freq.    3205.03  E(vib)   ...       0.00
freq.    3205.29  E(vib)   ...       0.00
freq.    3222.69  E(vib)   ...       0.00
freq.    3223.40  E(vib)   ...       0.00
freq.    3285.42  E(vib)   ...       0.00
freq.    3307.53  E(vib)   ...       0.00

------------
INNER ENERGY
------------

The inner energy is: U= E(el) + E(ZPE) + E(vib) + E(rot) + E(trans)
    E(el)   - is the total energy from the electronic structure calculation
              = E(kin-el) + E(nuc-el) + E(el-el) + E(nuc-nuc)
    E(ZPE)  - the the zero temperature vibrational energy from the frequency calculation
    E(vib)  - the the finite temperature correction to E(ZPE) due to population
              of excited vibrational states
    E(rot)  - is the rotational thermal energy
    E(trans)- is the translational thermal energy

Summary of contributions to the inner energy U:
Electronic energy                ...   -845.61989329 Eh
Zero point energy                ...      0.34592508 Eh     217.07 kcal/mol
Thermal vibrational correction   ...      0.01580272 Eh       9.92 kcal/mol
Thermal rotational correction    ...      0.00141627 Eh       0.89 kcal/mol
Thermal translational correction ...      0.00141627 Eh       0.89 kcal/mol
-----------------------------------------------------------------------
Total thermal energy                   -845.25533294 Eh

Summary of corrections to the electronic energy:
(perhaps to be used in another calculation)
Total thermal correction                  0.01863527 Eh      11.69 kcal/mol
Non-thermal (ZPE) correction              0.34592508 Eh     217.07 kcal/mol

Rotational constants in cm-1:     0.023990     0.006004     0.005222

                             ****ORCA TERMINATED NORMALLY****
TOTAL RUN TIME: 0 days 2 hours 25 minutes 21 seconds 367 msec
