                         Program Version 5.0.4 -  RELEASE  -
|  1> # ORCA 5.0.4 - /users/bwb16179/postgrad/2024_06/pKa_Reviewer_Comments/Gas_Z=0/9_deprot.inp # write input file
|  2> # Basic Mode
|  3> #
|  4> ! Opt Freq wB97X Def2-TZVP D4 SlowConv TightSCF Defgrid2 Def2/J RIJCOSX
|  5>
|  6> %PAL NPROCS 4 END
|  7>
|  8> %maxcore 4500
|  9>
| 10> %geom
| 11> Maxiter 150
| 12> END
| 13>
| 14> * xyzfile 0 1 9_deprot.xyz
| 15>
| 16>                          ****END OF INPUT****
 Total Charge           Charge          ....    0
 Multiplicity           Mult            ....    1
 Number of Electrons    NEL             ....   54
Dispersion correction           -0.001939902
FINAL SINGLE POINT ENERGY      -306.033505940546
Dispersion correction            ... Starting D4
Dispersion correction           -0.001941862
FINAL SINGLE POINT ENERGY      -306.034161312934
Dispersion correction            ... Starting D4
Dispersion correction           -0.001941795
FINAL SINGLE POINT ENERGY      -306.034179466823
Dispersion correction            ... Starting D4
Dispersion correction           -0.001941752
FINAL SINGLE POINT ENERGY      -306.034187121873
Dispersion correction            ... Starting D4
                    ***********************HURRAY********************

CARTESIAN COORDINATES (ANGSTROEM)
---------------------------------
  C      0.008086    0.763808   -1.218257
  C     -0.008087   -0.763808   -1.218257
  N     -0.131225    1.060537    0.206214
  N      0.131223   -1.060537    0.206214
  C     -0.000001   -0.000000    1.014376
  H     -0.809698    1.201772   -1.795542
  H      0.809696   -1.201773   -1.795542
  C     -0.188307    2.423845    0.655697
  C      0.188309   -2.423845    0.655697
  H     -1.048671    2.941691    0.220441
  H      1.048677   -2.941687    0.220445
  H     -0.282227    2.422997    1.739055
  H      0.282224   -2.422997    1.739056
  H      0.717694    2.974643    0.377580
  H     -0.717689   -2.974647    0.377576
  H      0.949488    1.171250   -1.604286
  H     -0.949490   -1.171249   -1.604285

 Multiplicity           Mult            ....    1
 Number of Electrons    NEL             ....   54
 Basis Dimension        Dim             ....  277

ORBITAL ENERGIES
----------------

  NO   OCC          E(Eh)            E(eV)
   0   2.0000     -14.406367      -392.0172
   1   2.0000     -14.406333      -392.0162
   2   2.0000     -10.293042      -280.0879
   3   2.0000     -10.292866      -280.0831
   4   2.0000     -10.275598      -279.6132
   5   2.0000     -10.275594      -279.6131
   6   2.0000     -10.260534      -279.2033
   7   2.0000      -1.126061       -30.6417
   8   2.0000      -1.026463       -27.9315
   9   2.0000      -0.896677       -24.3998
  10   2.0000      -0.854116       -23.2417
  11   2.0000      -0.801493       -21.8097
  12   2.0000      -0.735054       -20.0018
  13   2.0000      -0.666594       -18.1389
  14   2.0000      -0.619955       -16.8698
  15   2.0000      -0.614586       -16.7237
  16   2.0000      -0.572112       -15.5680
  17   2.0000      -0.555023       -15.1030
  18   2.0000      -0.530042       -14.4232
  19   2.0000      -0.520829       -14.1725
  20   2.0000      -0.516746       -14.0614
  21   2.0000      -0.479101       -13.0370
  22   2.0000      -0.476693       -12.9715
  23   2.0000      -0.467688       -12.7264
  24   2.0000      -0.422090       -11.4856
  25   2.0000      -0.308351        -8.3907
  26   2.0000      -0.306567        -8.3421
  27   0.0000       0.111312         3.0289
  28   0.0000       0.118879         3.2349
  29   0.0000       0.130642         3.5549
  30   0.0000       0.160518         4.3679
  31   0.0000       0.172892         4.7046

MULLIKEN ATOMIC CHARGES
-----------------------
   0 C :   -0.131183
   1 C :   -0.131156
   2 N :   -0.107251
   3 N :   -0.107256
   4 C :   -0.174131
   5 H :    0.110818
   6 H :    0.110814
   7 C :   -0.249851
   8 C :   -0.249866
   9 H :    0.109961
  10 H :    0.109962
  11 H :    0.148214
  12 H :    0.148215
  13 H :    0.106828
  14 H :    0.106828
  15 H :    0.099529
  16 H :    0.099526
Sum of atomic charges:   -0.0000000

LOEWDIN ATOMIC CHARGES
----------------------
   0 C :   -0.243762
   1 C :   -0.243762
   2 N :    0.119580
   3 N :    0.119580
   4 C :   -0.352875
   5 H :    0.127281
   6 H :    0.127281
   7 C :   -0.297537
   8 C :   -0.297538
   9 H :    0.109554
  10 H :    0.109554
  11 H :    0.127039
  12 H :    0.127039
  13 H :    0.108571
  14 H :    0.108571
  15 H :    0.125713
  16 H :    0.125713

  Mayer bond orders larger than 0.100000
B(  0-C ,  1-C ) :   1.0223 B(  0-C ,  2-N ) :   0.9256 B(  0-C ,  5-H ) :   0.9750
B(  0-C , 15-H ) :   0.9619 B(  1-C ,  3-N ) :   0.9256 B(  1-C ,  6-H ) :   0.9750
B(  1-C , 16-H ) :   0.9619 B(  2-N ,  4-C ) :   1.2141 B(  2-N ,  7-C ) :   0.9297
B(  3-N ,  4-C ) :   1.2141 B(  3-N ,  8-C ) :   0.9297 B(  7-C ,  9-H ) :   0.9720
B(  7-C , 11-H ) :   0.9761 B(  7-C , 13-H ) :   0.9727 B(  8-C , 10-H ) :   0.9720
B(  8-C , 12-H ) :   0.9761 B(  8-C , 14-H ) :   0.9727

Dispersion correction           -0.001941765
FINAL SINGLE POINT ENERGY      -306.034187296911

DIPOLE MOMENT
-------------
                                X             Y             Z
Electronic contribution:     -0.00001       0.00000       1.01033
Nuclear contribution   :      0.00001       0.00000      -2.21234
                        -----------------------------------------
Total Dipole Moment    :      0.00000       0.00000      -1.20200
                        -----------------------------------------
Magnitude (a.u.)       :      1.20200
Magnitude (Debye)      :      3.05525

Dispersion correction in the Hessian             ... Starting D4

VIBRATIONAL FREQUENCIES
-----------------------

Scaling factor for frequencies =  1.000000000  (already applied!)

   0:         0.00 cm**-1
   1:         0.00 cm**-1
   2:         0.00 cm**-1
   3:         0.00 cm**-1
   4:         0.00 cm**-1
   5:         0.00 cm**-1
   6:       103.58 cm**-1
   7:       119.35 cm**-1
   8:       169.45 cm**-1
   9:       207.69 cm**-1
  10:       228.70 cm**-1
  11:       292.40 cm**-1
  12:       421.50 cm**-1
  13:       465.58 cm**-1
  14:       624.49 cm**-1
  15:       654.00 cm**-1
  16:       856.40 cm**-1
  17:       931.70 cm**-1
  18:       962.45 cm**-1
  19:      1020.50 cm**-1
  20:      1099.48 cm**-1
  21:      1102.87 cm**-1
  22:      1115.71 cm**-1
  23:      1158.79 cm**-1
  24:      1175.51 cm**-1
  25:      1210.27 cm**-1
  26:      1249.25 cm**-1
  27:      1262.53 cm**-1
  28:      1326.22 cm**-1
  29:      1332.90 cm**-1
  30:      1349.67 cm**-1
  31:      1446.39 cm**-1
  32:      1457.97 cm**-1
  33:      1487.24 cm**-1
  34:      1491.98 cm**-1
  35:      1492.31 cm**-1
  36:      1494.01 cm**-1
  37:      1515.88 cm**-1
  38:      1529.64 cm**-1
  39:      1553.31 cm**-1
  40:      1560.66 cm**-1
  41:      3033.33 cm**-1
  42:      3035.43 cm**-1
  43:      3042.16 cm**-1
  44:      3046.51 cm**-1
  45:      3087.94 cm**-1
  46:      3088.44 cm**-1
  47:      3095.03 cm**-1
  48:      3107.96 cm**-1
  49:      3183.39 cm**-1
  50:      3183.44 cm**-1

IR SPECTRUM
-----------

 Mode   freq       eps      Int      T**2         TX        TY        TZ
       cm**-1   L/(mol*cm) km/mol    a.u.
----------------------------------------------------------------------------
  6:    103.58   0.000000    0.00  0.000001  ( 0.000003 -0.000000  0.001154)
  7:    119.35   0.001331    6.73  0.003481  ( 0.057203 -0.014442 -0.000000)
  8:    169.45   0.000000    0.00  0.000001  (-0.000000  0.000000 -0.000934)
  9:    207.69   0.001449    7.32  0.002178  ( 0.046277 -0.005998 -0.000000)
 10:    228.70   0.000016    0.08  0.000022  (-0.000000 -0.000000 -0.004701)
 11:    292.40   0.000169    0.85  0.000180  ( 0.000000  0.000000 -0.013422)
 12:    421.50   0.001109    5.61  0.000821  ( 0.006073 -0.028009  0.000000)
 13:    465.58   0.000934    4.72  0.000626  (-0.011689 -0.022118 -0.000000)
 14:    624.49   0.000182    0.92  0.000091  (-0.000000 -0.000000 -0.009548)
 15:    654.00   0.005519   27.89  0.002633  ( 0.002024 -0.051276  0.000000)
 16:    856.40   0.000235    1.19  0.000086  (-0.003823 -0.008435 -0.000000)
 17:    931.70   0.001872    9.46  0.000627  ( 0.000000  0.000000  0.025041)
 18:    962.45   0.000078    0.39  0.000025  ( 0.004943  0.000852 -0.000000)
 19:   1020.50   0.000044    0.22  0.000013  ( 0.000000 -0.000000 -0.003664)
 20:   1099.48   0.000134    0.68  0.000038  (-0.000000  0.000001  0.006177)
 21:   1102.87   0.004990   25.22  0.001412  (-0.006173  0.037067 -0.000000)
 22:   1115.71   0.000016    0.08  0.000004  (-0.000000 -0.000000  0.002104)
 23:   1158.79   0.000475    2.40  0.000128  (-0.002659  0.010988  0.000000)
 24:   1175.51   0.000004    0.02  0.000001  ( 0.000000  0.000000 -0.001085)
 25:   1210.27   0.002007   10.14  0.000518  ( 0.022597  0.002634 -0.000000)
 26:   1249.25   0.000191    0.97  0.000048  (-0.000000 -0.000000  0.006913)
 27:   1262.53   0.008673   43.83  0.002144  (-0.009463  0.045322  0.000000)
 28:   1326.22   0.015350   77.57  0.003612  (-0.002408  0.060051  0.000000)
 29:   1332.90   0.000004    0.02  0.000001  ( 0.000000  0.000002 -0.001001)
 30:   1349.67   0.001998   10.10  0.000462  ( 0.000000 -0.000000  0.021492)
 31:   1446.39   0.011704   59.15  0.002525  (-0.000137 -0.050251 -0.000000)
 32:   1457.97   0.000422    2.13  0.000090  (-0.000000  0.000001 -0.009509)
 33:   1487.24   0.022407  113.24  0.004702  (-0.018937  0.065901  0.000000)
 34:   1491.98   0.000137    0.69  0.000029  ( 0.000000  0.000000  0.005348)
 35:   1492.31   0.001031    5.21  0.000216  ( 0.000000 -0.000001  0.014685)
 36:   1494.01   0.006537   33.04  0.001365  ( 0.022525  0.029293 -0.000000)
 37:   1515.88   0.000022    0.11  0.000005  ( 0.001455  0.001572  0.000000)
 38:   1529.64   0.001567    7.92  0.000320  ( 0.000000 -0.000000 -0.017882)
 39:   1553.31   0.001073    5.42  0.000216  (-0.000000 -0.000000 -0.014681)
 40:   1560.66   0.024477  123.70  0.004894  (-0.001702  0.069939  0.000000)
 41:   3033.33   0.033053  167.03  0.003400  (-0.006389 -0.057962  0.000000)
 42:   3035.43   0.000151    0.76  0.000016  ( 0.000000  0.000001 -0.003937)
 43:   3042.16   0.012211   61.71  0.001253  ( 0.018814  0.029978 -0.000001)
 44:   3046.51   0.008229   41.58  0.000843  (-0.000001 -0.000001 -0.029032)
 45:   3087.94   0.001025    5.18  0.000104  (-0.000002  0.000000 -0.010178)
 46:   3088.44   0.018608   94.04  0.001880  ( 0.042573 -0.008230  0.000000)
 47:   3095.03   0.003363   16.99  0.000339  ( 0.000000 -0.000000  0.018413)
 48:   3107.96   0.006613   33.42  0.000664  ( 0.024945 -0.006461 -0.000001)
 49:   3183.39   0.000042    0.21  0.000004  (-0.001025 -0.001753 -0.000100)
 50:   3183.44   0.002192   11.08  0.000215  (-0.000007 -0.000012  0.014660)

--------------------------
THERMOCHEMISTRY AT 298.15K
--------------------------

Temperature         ... 298.15 K
Pressure            ... 1.00 atm
Total Mass          ... 98.15 AMU

Throughout the following assumptions are being made:
  (1) The electronic state is orbitally nondegenerate
  (2) There are no thermally accessible electronically excited states
  (3) Hindered rotations indicated by low frequency modes are not
      treated as such but are treated as vibrations and this may
      cause some error
  (4) All equations used are the standard statistical mechanics
      equations for an ideal gas
  (5) All vibrations are strictly harmonic

freq.     103.58  E(vib)   ...       0.46
freq.     119.35  E(vib)   ...       0.44
freq.     169.45  E(vib)   ...       0.38
freq.     207.69  E(vib)   ...       0.34
freq.     228.70  E(vib)   ...       0.32
freq.     292.40  E(vib)   ...       0.27
freq.     421.50  E(vib)   ...       0.18
freq.     465.58  E(vib)   ...       0.16
freq.     624.49  E(vib)   ...       0.09
freq.     654.00  E(vib)   ...       0.08
freq.     856.40  E(vib)   ...       0.04
freq.     931.70  E(vib)   ...       0.03
freq.     962.45  E(vib)   ...       0.03
freq.    1020.50  E(vib)   ...       0.02
freq.    1099.48  E(vib)   ...       0.02
freq.    1102.87  E(vib)   ...       0.02
freq.    1115.71  E(vib)   ...       0.01
freq.    1158.79  E(vib)   ...       0.01
freq.    1175.51  E(vib)   ...       0.01
freq.    1210.27  E(vib)   ...       0.01
freq.    1249.25  E(vib)   ...       0.01
freq.    1262.53  E(vib)   ...       0.01
freq.    1326.22  E(vib)   ...       0.01
freq.    1332.90  E(vib)   ...       0.01
freq.    1349.67  E(vib)   ...       0.01
freq.    1446.39  E(vib)   ...       0.00
freq.    1457.97  E(vib)   ...       0.00
freq.    1487.24  E(vib)   ...       0.00
freq.    1491.98  E(vib)   ...       0.00
freq.    1492.31  E(vib)   ...       0.00
freq.    1494.01  E(vib)   ...       0.00
freq.    1515.88  E(vib)   ...       0.00
freq.    1529.64  E(vib)   ...       0.00
freq.    1553.31  E(vib)   ...       0.00
freq.    1560.66  E(vib)   ...       0.00
freq.    3033.33  E(vib)   ...       0.00
freq.    3035.43  E(vib)   ...       0.00
freq.    3042.16  E(vib)   ...       0.00
freq.    3046.51  E(vib)   ...       0.00
freq.    3087.94  E(vib)   ...       0.00
freq.    3088.44  E(vib)   ...       0.00
freq.    3095.03  E(vib)   ...       0.00
freq.    3107.96  E(vib)   ...       0.00
freq.    3183.39  E(vib)   ...       0.00
freq.    3183.44  E(vib)   ...       0.00

------------
INNER ENERGY
------------

The inner energy is: U= E(el) + E(ZPE) + E(vib) + E(rot) + E(trans)
    E(el)   - is the total energy from the electronic structure calculation
              = E(kin-el) + E(nuc-el) + E(el-el) + E(nuc-nuc)
    E(ZPE)  - the the zero temperature vibrational energy from the frequency calculation
    E(vib)  - the the finite temperature correction to E(ZPE) due to population
              of excited vibrational states
    E(rot)  - is the rotational thermal energy
    E(trans)- is the translational thermal energy

Summary of contributions to the inner energy U:
Electronic energy                ...   -306.03418730 Eh
Zero point energy                ...      0.15121112 Eh      94.89 kcal/mol
Thermal vibrational correction   ...      0.00477185 Eh       2.99 kcal/mol
Thermal rotational correction    ...      0.00141627 Eh       0.89 kcal/mol
Thermal translational correction ...      0.00141627 Eh       0.89 kcal/mol
-----------------------------------------------------------------------
Total thermal energy                   -305.87537179 Eh

Summary of corrections to the electronic energy:
(perhaps to be used in another calculation)
Total thermal correction                  0.00760440 Eh       4.77 kcal/mol
Non-thermal (ZPE) correction              0.15121112 Eh      94.89 kcal/mol
-----------------------------------------------------------------------
Total correction                          0.15881551 Eh      99.66 kcal/mol

--------
ENTHALPY
--------

The enthalpy is H = U + kB*T
                kB is Boltzmann's constant
Total free energy                 ...   -305.87537179 Eh
Thermal Enthalpy correction       ...      0.00094421 Eh       0.59 kcal/mol
-----------------------------------------------------------------------
Total Enthalpy                    ...   -305.87442758 Eh

Note: Rotational entropy computed according to Herzberg
Infrared and Raman Spectra, Chapter V,1, Van Nostrand Reinhold, 1945
Point Group:  C2, Symmetry Number:   2
Rotational constants in cm-1:     0.200237     0.068155     0.052937

Vibrational entropy computed according to the QRRHO of S. Grimme
Chem.Eur.J. 2012 18 9955

-------
ENTROPY
-------

The entropy contributions are T*S = T*(S(el)+S(vib)+S(rot)+S(trans))
     S(el)   - electronic entropy
     S(vib)  - vibrational entropy
     S(rot)  - rotational entropy
     S(trans)- translational entropy
The entropies will be listed as multiplied by the temperature to get
units of energy

Electronic entropy                ...      0.00000000 Eh      0.00 kcal/mol
Vibrational entropy               ...      0.00827584 Eh      5.19 kcal/mol
Rotational entropy                ...      0.01227092 Eh      7.70 kcal/mol
Translational entropy             ...      0.01884478 Eh     11.83 kcal/mol
-----------------------------------------------------------------------
Final entropy term                ...      0.03939154 Eh     24.72 kcal/mol

In case the symmetry of your molecule has not been determined correctly
or in case you have a reason to use a different symmetry number we print
out the resulting rotational entropy values for sn=1,12 :
 --------------------------------------------------------
|  sn= 1 | S(rot)=       0.01292538 Eh      8.11 kcal/mol|
|  sn= 2 | S(rot)=       0.01227092 Eh      7.70 kcal/mol|
|  sn= 3 | S(rot)=       0.01188809 Eh      7.46 kcal/mol|
|  sn= 4 | S(rot)=       0.01161646 Eh      7.29 kcal/mol|
|  sn= 5 | S(rot)=       0.01140578 Eh      7.16 kcal/mol|
|  sn= 6 | S(rot)=       0.01123363 Eh      7.05 kcal/mol|
|  sn= 7 | S(rot)=       0.01108809 Eh      6.96 kcal/mol|
|  sn= 8 | S(rot)=       0.01096201 Eh      6.88 kcal/mol|
|  sn= 9 | S(rot)=       0.01085080 Eh      6.81 kcal/mol|
|  sn=10 | S(rot)=       0.01075132 Eh      6.75 kcal/mol|
|  sn=11 | S(rot)=       0.01066133 Eh      6.69 kcal/mol|
|  sn=12 | S(rot)=       0.01057918 Eh      6.64 kcal/mol|
 --------------------------------------------------------

-------------------
GIBBS FREE ENERGY
-------------------

The Gibbs free energy is G = H - T*S

Total enthalpy                    ...   -305.87442758 Eh
Total entropy correction          ...     -0.03939154 Eh    -24.72 kcal/mol

                             ****ORCA TERMINATED NORMALLY****
TOTAL RUN TIME: 0 days 0 hours 15 minutes 17 seconds 22 msec
