                         Program Version 5.0.4 -  RELEASE  -
|  1> # ORCAForces - ../2023_04/pKa_prediction/extra_carbenes/Gas/10_Gas.inp
|  2> # Basic Mode
|  3> #
|  4> ! Opt FREQ wB97X D4 Def2-SVP SlowConv TightSCF DEFGRID2 Def2/J RIJCOSX
|  5>
|  6> %maxcore 4500
|  7>
|  8> %PAL NPROCS 4 END
|  9>
| 10> %geom
| 11> Maxiter 150
| 12> END
| 13>
| 14> * xyzfile 0 1 10.xyz
| 15>
| 16>                          ****END OF INPUT****
 Total Charge           Charge          ....    0
 Multiplicity           Mult            ....    1
 Number of Electrons    NEL             ....   62
Dispersion correction           -0.002575207
FINAL SINGLE POINT ENERGY      -344.981966930881
Dispersion correction            ... Starting D4
Dispersion correction           -0.002580659
FINAL SINGLE POINT ENERGY      -344.982740694703
Dispersion correction            ... Starting D4
Dispersion correction           -0.002581456
FINAL SINGLE POINT ENERGY      -344.982770034697
Dispersion correction            ... Starting D4
Dispersion correction           -0.002581552
FINAL SINGLE POINT ENERGY      -344.982777547218
Dispersion correction            ... Starting D4
                    ***********************HURRAY********************

CARTESIAN COORDINATES (ANGSTROEM)
---------------------------------
  C     -0.060099    1.067804    1.238018
  C     -0.064179   -1.102391   -0.000000
  C     -0.060099    1.067804   -1.238017
  C      0.572948    1.675891   -0.000000
  H     -1.093392    1.443848    1.371849
  H      0.502933    1.362223   -2.139645
  H      1.654183    1.460197   -0.000000
  N     -0.058705   -0.386117    1.139842
  N     -0.058705   -0.386117   -1.139842
  H     -1.093392    1.443847   -1.371848
  H      0.452463    2.769640    0.000000
  H      0.502933    1.362223    2.139645
  C     -0.131314   -1.090707    2.400658
  H     -0.151433   -2.166328    2.189597
  H      0.740397   -0.859758    3.038961
  H     -1.043510   -0.816240    2.960966
  C     -0.131314   -1.090707   -2.400658
  H      0.740398   -0.859759   -3.038960
  H     -0.151434   -2.166328   -2.189597
  H     -1.043510   -0.816239   -2.960967

 Multiplicity           Mult            ....    1
 Number of Electrons    NEL             ....   62
 Basis Dimension        Dim             ....  172

ORBITAL ENERGIES
----------------

  NO   OCC          E(Eh)            E(eV)
   0   2.0000     -14.416079      -392.2815
   1   2.0000     -14.416071      -392.2812
   2   2.0000     -10.303880      -280.3828
   3   2.0000     -10.303878      -280.3828
   4   2.0000     -10.286541      -279.9110
   5   2.0000     -10.286518      -279.9104
   6   2.0000     -10.279624      -279.7228
   7   2.0000     -10.266642      -279.3695
   8   2.0000      -1.092822       -29.7372
   9   2.0000      -1.025969       -27.9180
  10   2.0000      -0.917069       -24.9547
  11   2.0000      -0.835105       -22.7244
  12   2.0000      -0.823856       -22.4183
  13   2.0000      -0.747755       -20.3475
  14   2.0000      -0.747586       -20.3429
  15   2.0000      -0.638641       -17.3783
  16   2.0000      -0.608780       -16.5657
  17   2.0000      -0.607091       -16.5198
  18   2.0000      -0.580703       -15.8017
  19   2.0000      -0.563932       -15.3454
  20   2.0000      -0.538174       -14.6445
  21   2.0000      -0.532859       -14.4998
  22   2.0000      -0.516408       -14.0522
  23   2.0000      -0.502015       -13.6605
  24   2.0000      -0.476572       -12.9682
  25   2.0000      -0.466245       -12.6872
  26   2.0000      -0.456413       -12.4196
  27   2.0000      -0.443177       -12.0595
  28   2.0000      -0.403937       -10.9917
  29   2.0000      -0.309425        -8.4199
  30   2.0000      -0.281406        -7.6574
  31   0.0000       0.127336         3.4650
  32   0.0000       0.142127         3.8675
  33   0.0000       0.162399         4.4191
  34   0.0000       0.183107         4.9826
  35   0.0000       0.192291         5.2325

MULLIKEN ATOMIC CHARGES
-----------------------
   0 C :    0.122925
   1 C :   -0.084969
   2 C :    0.122925
   3 C :   -0.060714
   4 H :    0.024197
   5 H :    0.022969
   6 H :    0.039548
   7 N :   -0.342738
   8 N :   -0.342739
   9 H :    0.024197
  10 H :    0.033317
  11 H :    0.022968
  12 C :    0.122016
  13 H :    0.050327
  14 H :    0.019781
  15 H :    0.016933
  16 C :    0.122016
  17 H :    0.019780
  18 H :    0.050327
  19 H :    0.016933
Sum of atomic charges:   -0.0000000

LOEWDIN ATOMIC CHARGES
----------------------
   0 C :    0.030171
   1 C :   -0.206346
   2 C :    0.030171
   3 C :   -0.048382
   4 H :    0.017012
   5 H :    0.022543
   6 H :    0.031366
   7 N :   -0.059510
   8 N :   -0.059510
   9 H :    0.017012
  10 H :    0.032412
  11 H :    0.022543
  12 C :    0.025484
  13 H :    0.032965
  14 H :    0.013329
  15 H :    0.013482
  16 C :    0.025484
  17 H :    0.013329
  18 H :    0.032965
  19 H :    0.013482

  Mayer bond orders larger than 0.100000
B(  0-C ,  3-C ) :   1.0709 B(  0-C ,  4-H ) :   0.9536 B(  0-C ,  7-N ) :   0.9299
B(  0-C , 11-H ) :   0.9531 B(  1-C ,  7-N ) :   1.2672 B(  1-C ,  8-N ) :   1.2672
B(  2-C ,  3-C ) :   1.0709 B(  2-C ,  5-H ) :   0.9531 B(  2-C ,  8-N ) :   0.9299
B(  2-C ,  9-H ) :   0.9536 B(  3-C ,  6-H ) :   0.9493 B(  3-C , 10-H ) :   0.9507
B(  7-N , 12-C ) :   0.9817 B(  8-N , 16-C ) :   0.9817 B( 12-C , 13-H ) :   0.9702
B( 12-C , 14-H ) :   0.9747 B( 12-C , 15-H ) :   0.9731 B( 16-C , 17-H ) :   0.9747
B( 16-C , 18-H ) :   0.9702 B( 16-C , 19-H ) :   0.9731

Dispersion correction           -0.002581476
FINAL SINGLE POINT ENERGY      -344.982778715408

DIPOLE MOMENT
-------------
                                X             Y             Z
Electronic contribution:     -0.01448      -1.09775       0.00000
Nuclear contribution   :      0.02652       2.25116       0.00000
                        -----------------------------------------
Total Dipole Moment    :      0.01204       1.15340       0.00000
                        -----------------------------------------
Magnitude (a.u.)       :      1.15346
Magnitude (Debye)      :      2.93187

Dispersion correction in the Hessian             ... Starting D4

VIBRATIONAL FREQUENCIES
-----------------------

Scaling factor for frequencies =  1.000000000  (already applied!)

   0:         0.00 cm**-1
   1:         0.00 cm**-1
   2:         0.00 cm**-1
   3:         0.00 cm**-1
   4:         0.00 cm**-1
   5:         0.00 cm**-1
   6:       126.53 cm**-1
   7:       156.55 cm**-1
   8:       205.13 cm**-1
   9:       236.48 cm**-1
  10:       287.16 cm**-1
  11:       305.73 cm**-1
  12:       330.74 cm**-1
  13:       438.79 cm**-1
  14:       466.39 cm**-1
  15:       484.93 cm**-1
  16:       527.17 cm**-1
  17:       628.09 cm**-1
  18:       811.72 cm**-1
  19:       893.55 cm**-1
  20:       921.49 cm**-1
  21:       953.16 cm**-1
  22:      1045.94 cm**-1
  23:      1079.87 cm**-1
  24:      1088.86 cm**-1
  25:      1120.14 cm**-1
  26:      1128.00 cm**-1
  27:      1149.63 cm**-1
  28:      1164.93 cm**-1
  29:      1216.96 cm**-1
  30:      1248.31 cm**-1
  31:      1282.66 cm**-1
  32:      1284.72 cm**-1
  33:      1338.13 cm**-1
  34:      1357.48 cm**-1
  35:      1401.45 cm**-1
  36:      1409.96 cm**-1
  37:      1421.41 cm**-1
  38:      1432.51 cm**-1
  39:      1452.81 cm**-1
  40:      1469.73 cm**-1
  41:      1470.04 cm**-1
  42:      1473.09 cm**-1
  43:      1479.09 cm**-1
  44:      1483.66 cm**-1
  45:      1494.12 cm**-1
  46:      1516.85 cm**-1
  47:      1598.55 cm**-1
  48:      3028.76 cm**-1
  49:      3030.64 cm**-1
  50:      3031.11 cm**-1
  51:      3036.44 cm**-1
  52:      3085.45 cm**-1
  53:      3104.06 cm**-1
  54:      3106.17 cm**-1
  55:      3108.04 cm**-1
  56:      3110.85 cm**-1
  57:      3155.04 cm**-1
  58:      3210.00 cm**-1
  59:      3210.04 cm**-1

IR SPECTRUM
-----------

 Mode   freq       eps      Int      T**2         TX        TY        TZ
       cm**-1   L/(mol*cm) km/mol    a.u.
----------------------------------------------------------------------------
  6:    126.53   0.000035    0.17  0.000085  (-0.000000 -0.000000  0.009234)
  7:    156.55   0.001224    6.19  0.002441  ( 0.049396  0.000889  0.000000)
  8:    205.13   0.000060    0.30  0.000092  ( 0.000001 -0.000000 -0.009581)
  9:    236.48   0.000222    1.12  0.000293  ( 0.016961 -0.002408  0.000000)
 10:    287.16   0.001024    5.17  0.001113  ( 0.032744 -0.006349 -0.000000)
 11:    305.73   0.000006    0.03  0.000006  (-0.000000 -0.000000 -0.002480)
 12:    330.74   0.000567    2.87  0.000535  (-0.020174 -0.011330 -0.000000)
 13:    438.79   0.000128    0.65  0.000091  ( 0.000000 -0.000000  0.009551)
 14:    466.39   0.000126    0.63  0.000084  (-0.005977 -0.006948 -0.000001)
 15:    484.93   0.003781   19.11  0.002433  (-0.000000 -0.000000  0.049324)
 16:    527.17   0.000483    2.44  0.000286  ( 0.002372  0.016735 -0.000000)
 17:    628.09   0.000107    0.54  0.000053  (-0.002745 -0.006751  0.000000)
 18:    811.72   0.000499    2.52  0.000192  ( 0.001635  0.013750 -0.000000)
 19:    893.55   0.001773    8.96  0.000619  ( 0.000000 -0.000000  0.024885)
 20:    921.49   0.000773    3.91  0.000262  (-0.000000 -0.000000 -0.016180)
 21:    953.16   0.000075    0.38  0.000025  ( 0.004936 -0.000513 -0.000000)
 22:   1045.94   0.002561   12.94  0.000764  ( 0.005370 -0.027113  0.000000)
 23:   1079.87   0.000298    1.51  0.000086  (-0.000000 -0.000000  0.009284)
 24:   1088.86   0.000099    0.50  0.000028  ( 0.001044  0.005232  0.000000)
 25:   1120.14   0.000780    3.94  0.000217  (-0.012624 -0.007607  0.000000)
 26:   1128.00   0.002631   13.30  0.000728  ( 0.000000  0.000000 -0.026981)
 27:   1149.63   0.000064    0.33  0.000017  (-0.000000 -0.000000  0.004182)
 28:   1164.93   0.001067    5.39  0.000286  (-0.016428 -0.004004 -0.000000)
 29:   1216.96   0.000381    1.93  0.000098  (-0.000000 -0.000000  0.009889)
 30:   1248.31   0.010547   53.30  0.002637  ( 0.000000 -0.000000 -0.051349)
 31:   1282.66   0.002955   14.93  0.000719  ( 0.011777  0.024087 -0.000001)
 32:   1284.72   0.002210   11.17  0.000537  ( 0.000001  0.000002  0.023167)
 33:   1338.13   0.000652    3.30  0.000152  ( 0.004895 -0.011322 -0.000000)
 34:   1357.48   0.007655   38.68  0.001760  ( 0.000000  0.000000  0.041948)
 35:   1401.45   0.007156   36.16  0.001593  (-0.000000 -0.000000 -0.039918)
 36:   1409.96   0.003035   15.34  0.000672  ( 0.000646  0.025912 -0.000000)
 37:   1421.41   0.002417   12.21  0.000531  ( 0.000000 -0.000000 -0.023035)
 38:   1432.51   0.000985    4.98  0.000214  (-0.002932  0.014349 -0.000000)
 39:   1452.81   0.000789    3.98  0.000169  (-0.011082  0.006823  0.000000)
 40:   1469.73   0.003002   15.17  0.000637  ( 0.003579  0.024991 -0.000000)
 41:   1470.04   0.002320   11.73  0.000493  (-0.000000  0.000000  0.022193)
 42:   1473.09   0.004003   20.23  0.000848  (-0.028113 -0.007592  0.000000)
 43:   1479.09   0.009286   46.93  0.001959  ( 0.000000  0.000000  0.044262)
 44:   1483.66   0.000229    1.16  0.000048  (-0.000000  0.000000 -0.006947)
 45:   1494.12   0.000806    4.07  0.000168  ( 0.005792 -0.011607  0.000000)
 46:   1516.85   0.002131   10.77  0.000438  (-0.003816  0.020587  0.000000)
 47:   1598.55   0.052714  266.40  0.010291  (-0.000000 -0.000000  0.101443)
 48:   3028.76   0.000990    5.00  0.000102  (-0.000000  0.000001  0.010102)
 49:   3030.64   0.005727   28.94  0.000590  ( 0.013246 -0.020353 -0.000009)
 50:   3031.11   0.037330  188.65  0.003843  ( 0.000002 -0.000003  0.061994)
 51:   3036.44   0.007608   38.45  0.000782  (-0.023156  0.015675  0.000001)
 52:   3085.45   0.001212    6.13  0.000123  (-0.006257 -0.009136 -0.000000)
 53:   3104.06   0.003974   20.08  0.000400  ( 0.000002  0.000000 -0.019988)
 54:   3106.17   0.020891  105.57  0.002099  (-0.045658 -0.003765 -0.000001)
 55:   3108.04   0.001647    8.32  0.000165  (-0.000001 -0.000001  0.012858)
 56:   3110.85   0.002564   12.96  0.000257  ( 0.011514  0.011165  0.000001)
 57:   3155.04   0.003940   19.91  0.000390  ( 0.011383 -0.016130  0.000000)
 58:   3210.00   0.000849    4.29  0.000082  ( 0.000526  0.009067 -0.000012)
 59:   3210.04   0.000168    0.85  0.000016  ( 0.000002  0.000028  0.004044)

--------------------------
THERMOCHEMISTRY AT 298.15K
--------------------------

Temperature         ... 298.15 K
Pressure            ... 1.00 atm
Total Mass          ... 112.18 AMU

Throughout the following assumptions are being made:
  (1) The electronic state is orbitally nondegenerate
  (2) There are no thermally accessible electronically excited states
  (3) Hindered rotations indicated by low frequency modes are not
      treated as such but are treated as vibrations and this may
      cause some error
  (4) All equations used are the standard statistical mechanics
      equations for an ideal gas
  (5) All vibrations are strictly harmonic

freq.     126.53  E(vib)   ...       0.43
freq.     156.55  E(vib)   ...       0.40
freq.     205.13  E(vib)   ...       0.35
freq.     236.48  E(vib)   ...       0.32
freq.     287.16  E(vib)   ...       0.27
freq.     305.73  E(vib)   ...       0.26
freq.     330.74  E(vib)   ...       0.24
freq.     438.79  E(vib)   ...       0.17
freq.     466.39  E(vib)   ...       0.16
freq.     484.93  E(vib)   ...       0.15
freq.     527.17  E(vib)   ...       0.13
freq.     628.09  E(vib)   ...       0.09
freq.     811.72  E(vib)   ...       0.05
freq.     893.55  E(vib)   ...       0.03
freq.     921.49  E(vib)   ...       0.03
freq.     953.16  E(vib)   ...       0.03
freq.    1045.94  E(vib)   ...       0.02
freq.    1079.87  E(vib)   ...       0.02
freq.    1088.86  E(vib)   ...       0.02
freq.    1120.14  E(vib)   ...       0.01
freq.    1128.00  E(vib)   ...       0.01
freq.    1149.63  E(vib)   ...       0.01
freq.    1164.93  E(vib)   ...       0.01
freq.    1216.96  E(vib)   ...       0.01
freq.    1248.31  E(vib)   ...       0.01
freq.    1282.66  E(vib)   ...       0.01
freq.    1284.72  E(vib)   ...       0.01
freq.    1338.13  E(vib)   ...       0.01
freq.    1357.48  E(vib)   ...       0.01
freq.    1401.45  E(vib)   ...       0.00
freq.    1409.96  E(vib)   ...       0.00
freq.    1421.41  E(vib)   ...       0.00
freq.    1432.51  E(vib)   ...       0.00
freq.    1452.81  E(vib)   ...       0.00
freq.    1469.73  E(vib)   ...       0.00
freq.    1470.04  E(vib)   ...       0.00
freq.    1473.09  E(vib)   ...       0.00
freq.    1479.09  E(vib)   ...       0.00
freq.    1483.66  E(vib)   ...       0.00
freq.    1494.12  E(vib)   ...       0.00
freq.    1516.85  E(vib)   ...       0.00
freq.    1598.55  E(vib)   ...       0.00
freq.    3028.76  E(vib)   ...       0.00
freq.    3030.64  E(vib)   ...       0.00
freq.    3031.11  E(vib)   ...       0.00
freq.    3036.44  E(vib)   ...       0.00
freq.    3085.45  E(vib)   ...       0.00
freq.    3104.06  E(vib)   ...       0.00
freq.    3106.17  E(vib)   ...       0.00
freq.    3108.04  E(vib)   ...       0.00
freq.    3110.85  E(vib)   ...       0.00
freq.    3155.04  E(vib)   ...       0.00
freq.    3210.00  E(vib)   ...       0.00
freq.    3210.04  E(vib)   ...       0.00

------------
INNER ENERGY
------------

The inner energy is: U= E(el) + E(ZPE) + E(vib) + E(rot) + E(trans)
    E(el)   - is the total energy from the electronic structure calculation
              = E(kin-el) + E(nuc-el) + E(el-el) + E(nuc-nuc)
    E(ZPE)  - the the zero temperature vibrational energy from the frequency calculation
    E(vib)  - the the finite temperature correction to E(ZPE) due to population
              of excited vibrational states
    E(rot)  - is the rotational thermal energy
    E(trans)- is the translational thermal energy

Summary of contributions to the inner energy U:
Electronic energy                ...   -344.98277872 Eh
Zero point energy                ...      0.18134015 Eh     113.79 kcal/mol
Thermal vibrational correction   ...      0.00525665 Eh       3.30 kcal/mol
Thermal rotational correction    ...      0.00141627 Eh       0.89 kcal/mol
Thermal translational correction ...      0.00141627 Eh       0.89 kcal/mol
-----------------------------------------------------------------------
Total thermal energy                   -344.79334937 Eh

Summary of corrections to the electronic energy:
(perhaps to be used in another calculation)
Total thermal correction                  0.00808920 Eh       5.08 kcal/mol
Non-thermal (ZPE) correction              0.18134015 Eh     113.79 kcal/mol
-----------------------------------------------------------------------
Total correction                          0.18942934 Eh     118.87 kcal/mol

--------
ENTHALPY
--------

The enthalpy is H = U + kB*T
                kB is Boltzmann's constant
Total free energy                 ...   -344.79334937 Eh
Thermal Enthalpy correction       ...      0.00094421 Eh       0.59 kcal/mol
-----------------------------------------------------------------------
Total Enthalpy                    ...   -344.79240516 Eh

Note: Rotational entropy computed according to Herzberg
Infrared and Raman Spectra, Chapter V,1, Van Nostrand Reinhold, 1945
Point Group:  Cs, Symmetry Number:   1
Rotational constants in cm-1:     0.110638     0.059791     0.040946

Vibrational entropy computed according to the QRRHO of S. Grimme
Chem.Eur.J. 2012 18 9955

-------
ENTROPY
-------

The entropy contributions are T*S = T*(S(el)+S(vib)+S(rot)+S(trans))
     S(el)   - electronic entropy
     S(vib)  - vibrational entropy
     S(rot)  - rotational entropy
     S(trans)- translational entropy
The entropies will be listed as multiplied by the temperature to get
units of energy

Electronic entropy                ...      0.00000000 Eh      0.00 kcal/mol
Vibrational entropy               ...      0.00862970 Eh      5.42 kcal/mol
Rotational entropy                ...      0.01338851 Eh      8.40 kcal/mol
Translational entropy             ...      0.01903397 Eh     11.94 kcal/mol
-----------------------------------------------------------------------
Final entropy term                ...      0.04105218 Eh     25.76 kcal/mol

In case the symmetry of your molecule has not been determined correctly
or in case you have a reason to use a different symmetry number we print
out the resulting rotational entropy values for sn=1,12 :
 --------------------------------------------------------
|  sn= 1 | S(rot)=       0.01338851 Eh      8.40 kcal/mol|
|  sn= 2 | S(rot)=       0.01273406 Eh      7.99 kcal/mol|
|  sn= 3 | S(rot)=       0.01235122 Eh      7.75 kcal/mol|
|  sn= 4 | S(rot)=       0.01207960 Eh      7.58 kcal/mol|
|  sn= 5 | S(rot)=       0.01186891 Eh      7.45 kcal/mol|
|  sn= 6 | S(rot)=       0.01169677 Eh      7.34 kcal/mol|
|  sn= 7 | S(rot)=       0.01155122 Eh      7.25 kcal/mol|
|  sn= 8 | S(rot)=       0.01142514 Eh      7.17 kcal/mol|
|  sn= 9 | S(rot)=       0.01131393 Eh      7.10 kcal/mol|
|  sn=10 | S(rot)=       0.01121446 Eh      7.04 kcal/mol|
|  sn=11 | S(rot)=       0.01112447 Eh      6.98 kcal/mol|
|  sn=12 | S(rot)=       0.01104231 Eh      6.93 kcal/mol|
 --------------------------------------------------------

                             ****ORCA TERMINATED NORMALLY****
TOTAL RUN TIME: 0 days 0 hours 6 minutes 14 seconds 509 msec
