                         Program Version 5.0.4 -  RELEASE  -
|  1> # ORCAForces - ../2023_04/pKa_prediction/extra_carbenes/Gas/11_Gas.inp
|  2> # Basic Mode
|  3> #
|  4> ! Opt FREQ wB97X D4 Def2-SVP SlowConv TightSCF DEFGRID2 Def2/J RIJCOSX
|  5>
|  6> %maxcore 4500
|  7>
|  8> %PAL NPROCS 4 END
|  9>
| 10> %geom
| 11> Maxiter 150
| 12> END
| 13>
| 14> * xyzfile 0 1 11.xyz
| 15>
| 16>                          ****END OF INPUT****
 Total Charge           Charge          ....    0
 Multiplicity           Mult            ....    1
 Number of Electrons    NEL             ....   56
Dispersion correction           -0.002167133
FINAL SINGLE POINT ENERGY      -306.881341435090
Dispersion correction            ... Starting D4
Dispersion correction           -0.002177887
FINAL SINGLE POINT ENERGY      -306.881744945657
Dispersion correction            ... Starting D4
Dispersion correction           -0.002176103
FINAL SINGLE POINT ENERGY      -306.881476146287
Dispersion correction            ... Starting D4
FINAL SINGLE POINT ENERGY      -306.882310202761
FINAL SINGLE POINT ENERGY      -306.882329845086
FINAL SINGLE POINT ENERGY      -306.882350716457
FINAL SINGLE POINT ENERGY      -306.882362901713
Dispersion correction           -0.002178051
FINAL SINGLE POINT ENERGY      -306.882373144708
Dispersion correction            ... Starting D4
Dispersion correction           -0.002178332
FINAL SINGLE POINT ENERGY      -306.882378964652
Dispersion correction            ... Starting D4
                    ***********************HURRAY********************

CARTESIAN COORDINATES (ANGSTROEM)
---------------------------------
  C     -0.000001   -0.000000    0.824194
  N     -0.017587    1.161102    0.138655
  N      0.017586   -1.161102    0.138655
  C      0.354551    1.425016   -1.246513
  C     -0.354551   -1.425016   -1.246513
  H      0.951490    2.350648   -1.279330
  H     -0.951490   -2.350648   -1.279331
  H      0.983757    0.620417   -1.644570
  H     -0.983757   -0.620417   -1.644571
  H     -0.511289    1.568933   -1.916654
  H      0.511290   -1.568933   -1.916653
  C     -0.193852    2.370441    0.922976
  C      0.193852   -2.370440    0.922976
  H     -0.394486    2.080472    1.960402
  H      0.394486   -2.080471    1.960402
  H      0.710803    3.005174    0.889830
  H     -0.710801   -3.005175    0.889831
  H     -1.041982    2.968025    0.544994
  H      1.041983   -2.968024    0.544994

 Multiplicity           Mult            ....    1
 Number of Electrons    NEL             ....   56
 Basis Dimension        Dim             ....  158

ORBITAL ENERGIES
----------------

  NO   OCC          E(Eh)            E(eV)
   0   2.0000     -14.419214      -392.3668
   1   2.0000     -14.419206      -392.3665
   2   2.0000     -10.301472      -280.3173
   3   2.0000     -10.301451      -280.3167
   4   2.0000     -10.284986      -279.8687
   5   2.0000     -10.284957      -279.8679
   6   2.0000     -10.268436      -279.4183
   7   2.0000      -1.081103       -29.4183
   8   2.0000      -1.027505       -27.9598
   9   2.0000      -0.845113       -22.9967
  10   2.0000      -0.830580       -22.6012
  11   2.0000      -0.824510       -22.4361
  12   2.0000      -0.748514       -20.3681
  13   2.0000      -0.656502       -17.8643
  14   2.0000      -0.608542       -16.5593
  15   2.0000      -0.585410       -15.9298
  16   2.0000      -0.583072       -15.8662
  17   2.0000      -0.562625       -15.3098
  18   2.0000      -0.539739       -14.6871
  19   2.0000      -0.524882       -14.2828
  20   2.0000      -0.506542       -13.7837
  21   2.0000      -0.495789       -13.4911
  22   2.0000      -0.477261       -12.9869
  23   2.0000      -0.474971       -12.9246
  24   2.0000      -0.458961       -12.4890
  25   2.0000      -0.405543       -11.0354
  26   2.0000      -0.322525        -8.7763
  27   2.0000      -0.269138        -7.3236
  28   0.0000       0.133263         3.6263
  29   0.0000       0.138882         3.7792
  30   0.0000       0.163682         4.4540
  31   0.0000       0.187311         5.0970
  32   0.0000       0.191684         5.2160

MULLIKEN ATOMIC CHARGES
-----------------------
   0 C :   -0.097632
   1 N :   -0.338935
   2 N :   -0.338935
   3 C :    0.079011
   4 C :    0.079011
   5 H :    0.028588
   6 H :    0.028588
   7 H :    0.037601
   8 H :    0.037600
   9 H :    0.037691
  10 H :    0.037692
  11 C :    0.116416
  12 C :    0.116416
  13 H :    0.049782
  14 H :    0.049782
  15 H :    0.018304
  16 H :    0.018304
  17 H :    0.020357
  18 H :    0.020357
Sum of atomic charges:    0.0000000

LOEWDIN ATOMIC CHARGES
----------------------
   0 C :   -0.200704
   1 N :   -0.063304
   2 N :   -0.063304
   3 C :    0.013269
   4 C :    0.013269
   5 H :    0.023462
   6 H :    0.023462
   7 H :    0.026784
   8 H :    0.026784
   9 H :    0.017294
  10 H :    0.017294
  11 C :    0.025979
  12 C :    0.025979
  13 H :    0.031239
  14 H :    0.031239
  15 H :    0.011949
  16 H :    0.011949
  17 H :    0.013680
  18 H :    0.013680

  Mayer bond orders larger than 0.100000
B(  0-C ,  1-N ) :   1.2772 B(  0-C ,  2-N ) :   1.2772 B(  1-N ,  3-C ) :   0.9434
B(  1-N , 11-C ) :   0.9808 B(  2-N ,  4-C ) :   0.9434 B(  2-N , 12-C ) :   0.9808
B(  3-C ,  5-H ) :   0.9706 B(  3-C ,  7-H ) :   0.9737 B(  3-C ,  9-H ) :   0.9728
B(  4-C ,  6-H ) :   0.9706 B(  4-C ,  8-H ) :   0.9737 B(  4-C , 10-H ) :   0.9728
B( 11-C , 13-H ) :   0.9702 B( 11-C , 15-H ) :   0.9721 B( 11-C , 17-H ) :   0.9769
B( 12-C , 14-H ) :   0.9702 B( 12-C , 16-H ) :   0.9721 B( 12-C , 18-H ) :   0.9769

Dispersion correction           -0.002178366
FINAL SINGLE POINT ENERGY      -306.882380185411

DIPOLE MOMENT
-------------
                                X             Y             Z
Electronic contribution:     -0.00000      -0.00000       1.98926
Nuclear contribution   :      0.00000       0.00000      -3.05895
                        -----------------------------------------
Total Dipole Moment    :      0.00000      -0.00000      -1.06969
                        -----------------------------------------
Magnitude (a.u.)       :      1.06969
Magnitude (Debye)      :      2.71893

Dispersion correction in the Hessian             ... Starting D4

VIBRATIONAL FREQUENCIES
-----------------------

Scaling factor for frequencies =  1.000000000  (already applied!)

   0:         0.00 cm**-1
   1:         0.00 cm**-1
   2:         0.00 cm**-1
   3:         0.00 cm**-1
   4:         0.00 cm**-1
   5:         0.00 cm**-1
   6:        66.40 cm**-1
   7:       157.96 cm**-1
   8:       180.32 cm**-1
   9:       188.11 cm**-1
  10:       197.98 cm**-1
  11:       243.23 cm**-1
  12:       283.85 cm**-1
  13:       327.49 cm**-1
  14:       358.42 cm**-1
  15:       430.79 cm**-1
  16:       441.51 cm**-1
  17:       500.00 cm**-1
  18:       624.42 cm**-1
  19:       897.30 cm**-1
  20:       922.81 cm**-1
  21:      1066.40 cm**-1
  22:      1070.85 cm**-1
  23:      1093.31 cm**-1
  24:      1111.28 cm**-1
  25:      1114.56 cm**-1
  26:      1161.98 cm**-1
  27:      1165.35 cm**-1
  28:      1170.84 cm**-1
  29:      1274.25 cm**-1
  30:      1334.74 cm**-1
  31:      1412.09 cm**-1
  32:      1414.22 cm**-1
  33:      1421.18 cm**-1
  34:      1421.89 cm**-1
  35:      1451.33 cm**-1
  36:      1457.56 cm**-1
  37:      1474.17 cm**-1
  38:      1475.39 cm**-1
  39:      1476.07 cm**-1
  40:      1478.20 cm**-1
  41:      1492.06 cm**-1
  42:      1492.54 cm**-1
  43:      1515.37 cm**-1
  44:      1591.87 cm**-1
  45:      3030.35 cm**-1
  46:      3032.05 cm**-1
  47:      3046.10 cm**-1
  48:      3051.23 cm**-1
  49:      3108.78 cm**-1
  50:      3109.09 cm**-1
  51:      3127.99 cm**-1
  52:      3130.94 cm**-1
  53:      3203.93 cm**-1
  54:      3206.84 cm**-1
  55:      3216.12 cm**-1
  56:      3216.13 cm**-1

IR SPECTRUM
-----------

 Mode   freq       eps      Int      T**2         TX        TY        TZ
       cm**-1   L/(mol*cm) km/mol    a.u.
----------------------------------------------------------------------------
  6:     66.40   0.000013    0.07  0.000063  (-0.000000  0.000000  0.007926)
  7:    157.96   0.000943    4.77  0.001863  ( 0.042595  0.006989  0.000000)
  8:    180.32   0.000000    0.00  0.000000  (-0.000000  0.000000  0.000008)
  9:    188.11   0.000032    0.16  0.000053  ( 0.000000  0.000000  0.007265)
 10:    197.98   0.000370    1.87  0.000584  ( 0.019880  0.013725 -0.000000)
 11:    243.23   0.001388    7.01  0.001781  ( 0.039807 -0.013999 -0.000000)
 12:    283.85   0.000368    1.86  0.000404  ( 0.000000 -0.000000  0.020108)
 13:    327.49   0.000033    0.17  0.000032  ( 0.000000 -0.000000  0.005636)
 14:    358.42   0.002359   11.92  0.002054  (-0.022970  0.039072  0.000000)
 15:    430.79   0.000030    0.15  0.000022  (-0.000000 -0.000000  0.004647)
 16:    441.51   0.001971    9.96  0.001393  (-0.012601 -0.035133 -0.000000)
 17:    500.00   0.000568    2.87  0.000354  ( 0.005751 -0.017922  0.000000)
 18:    624.42   0.000453    2.29  0.000226  ( 0.000000 -0.000000  0.015041)
 19:    897.30   0.001611    8.14  0.000560  (-0.000000  0.000000  0.023670)
 20:    922.81   0.006540   33.05  0.002212  (-0.002703 -0.046951  0.000000)
 21:   1066.40   0.000496    2.51  0.000145  ( 0.000000 -0.000001  0.012052)
 22:   1070.85   0.001090    5.51  0.000318  (-0.001918  0.017718  0.000000)
 23:   1093.31   0.000719    3.64  0.000205  ( 0.000000 -0.000000  0.014329)
 24:   1111.28   0.000306    1.54  0.000086  ( 0.008808 -0.002871  0.000000)
 25:   1114.56   0.000366    1.85  0.000103  (-0.000000  0.000000  0.010130)
 26:   1161.98   0.006808   34.41  0.001828  ( 0.011310  0.041238  0.000000)
 27:   1165.35   0.000152    0.77  0.000041  (-0.000000  0.000000  0.006386)
 28:   1170.84   0.011381   57.51  0.003033  (-0.009366  0.054273  0.000000)
 29:   1274.25   0.000350    1.77  0.000086  ( 0.002809 -0.008826  0.000000)
 30:   1334.74   0.004407   22.27  0.001030  (-0.000000  0.000000  0.032101)
 31:   1412.09   0.000012    0.06  0.000003  ( 0.000000 -0.000000  0.001615)
 32:   1414.22   0.001935    9.78  0.000427  ( 0.007380  0.019303 -0.000000)
 33:   1421.18   0.019662   99.36  0.004317  ( 0.002563 -0.065657 -0.000000)
 34:   1421.89   0.000083    0.42  0.000018  (-0.000000  0.000003 -0.004260)
 35:   1451.33   0.000559    2.83  0.000120  (-0.000000  0.000000 -0.010967)
 36:   1457.56   0.000294    1.49  0.000063  ( 0.006991 -0.003754 -0.000000)
 37:   1474.17   0.000067    0.34  0.000014  ( 0.000001  0.000001 -0.003761)
 38:   1475.39   0.005232   26.44  0.001107  ( 0.032867  0.005137 -0.000000)
 39:   1476.07   0.011003   55.61  0.002326  ( 0.004325 -0.048037  0.000000)
 40:   1478.20   0.002086   10.54  0.000440  (-0.000000 -0.000001 -0.020986)
 41:   1492.06   0.001971    9.96  0.000412  (-0.018770 -0.007747 -0.000001)
 42:   1492.54   0.001313    6.64  0.000275  ( 0.000001  0.000000 -0.016569)
 43:   1515.37   0.001163    5.88  0.000239  ( 0.000000  0.000000  0.015473)
 44:   1591.87   0.065492  330.97  0.012839  (-0.007596 -0.113053  0.000000)
 45:   3030.35   0.028948  146.29  0.002981  ( 0.003392  0.054493  0.000000)
 46:   3032.05   0.002450   12.38  0.000252  (-0.000000 -0.000001  0.015878)
 47:   3046.10   0.007683   38.83  0.000787  (-0.002083  0.027979 -0.000000)
 48:   3051.23   0.011670   58.98  0.001194  ( 0.000000 -0.000000 -0.034548)
 49:   3108.78   0.000461    2.33  0.000046  ( 0.000005 -0.000000  0.006803)
 50:   3109.09   0.017018   86.00  0.001708  ( 0.041326 -0.000527 -0.000001)
 51:   3127.99   0.000268    1.35  0.000027  (-0.000000 -0.000000 -0.005168)
 52:   3130.94   0.008117   41.02  0.000809  (-0.023009 -0.016722  0.000000)
 53:   3203.93   0.003920   19.81  0.000382  (-0.012200  0.015264  0.000001)
 54:   3206.84   0.000258    1.30  0.000025  (-0.000002  0.000002 -0.005009)
 55:   3216.12   0.000316    1.60  0.000031  (-0.002396 -0.004993 -0.000052)
 56:   3216.13   0.000678    3.43  0.000066  (-0.000015 -0.000032  0.008111)

--------------------------
THERMOCHEMISTRY AT 298.15K
--------------------------

Temperature         ... 298.15 K
Pressure            ... 1.00 atm
Total Mass          ... 100.16 AMU

Throughout the following assumptions are being made:
  (1) The electronic state is orbitally nondegenerate
  (2) There are no thermally accessible electronically excited states
  (3) Hindered rotations indicated by low frequency modes are not
      treated as such but are treated as vibrations and this may
      cause some error
  (4) All equations used are the standard statistical mechanics
      equations for an ideal gas
  (5) All vibrations are strictly harmonic

freq.      66.40  E(vib)   ...       0.50
freq.     157.96  E(vib)   ...       0.40
freq.     180.32  E(vib)   ...       0.37
freq.     188.11  E(vib)   ...       0.36
freq.     197.98  E(vib)   ...       0.35
freq.     243.23  E(vib)   ...       0.31
freq.     283.85  E(vib)   ...       0.28
freq.     327.49  E(vib)   ...       0.24
freq.     358.42  E(vib)   ...       0.22
freq.     430.79  E(vib)   ...       0.18
freq.     441.51  E(vib)   ...       0.17
freq.     500.00  E(vib)   ...       0.14
freq.     624.42  E(vib)   ...       0.09
freq.     897.30  E(vib)   ...       0.03
freq.     922.81  E(vib)   ...       0.03
freq.    1066.40  E(vib)   ...       0.02
freq.    1070.85  E(vib)   ...       0.02
freq.    1093.31  E(vib)   ...       0.02
freq.    1111.28  E(vib)   ...       0.01
freq.    1114.56  E(vib)   ...       0.01
freq.    1161.98  E(vib)   ...       0.01
freq.    1165.35  E(vib)   ...       0.01
freq.    1170.84  E(vib)   ...       0.01
freq.    1274.25  E(vib)   ...       0.01
freq.    1334.74  E(vib)   ...       0.01
freq.    1412.09  E(vib)   ...       0.00
freq.    1414.22  E(vib)   ...       0.00
freq.    1421.18  E(vib)   ...       0.00
freq.    1421.89  E(vib)   ...       0.00
freq.    1451.33  E(vib)   ...       0.00
freq.    1457.56  E(vib)   ...       0.00
freq.    1474.17  E(vib)   ...       0.00
freq.    1475.39  E(vib)   ...       0.00
freq.    1476.07  E(vib)   ...       0.00
freq.    1478.20  E(vib)   ...       0.00
freq.    1492.06  E(vib)   ...       0.00
freq.    1492.54  E(vib)   ...       0.00
freq.    1515.37  E(vib)   ...       0.00
freq.    1591.87  E(vib)   ...       0.00
freq.    3030.35  E(vib)   ...       0.00
freq.    3032.05  E(vib)   ...       0.00
freq.    3046.10  E(vib)   ...       0.00
freq.    3051.23  E(vib)   ...       0.00
freq.    3108.78  E(vib)   ...       0.00
freq.    3109.09  E(vib)   ...       0.00
freq.    3127.99  E(vib)   ...       0.00
freq.    3130.94  E(vib)   ...       0.00
freq.    3203.93  E(vib)   ...       0.00
freq.    3206.84  E(vib)   ...       0.00
freq.    3216.12  E(vib)   ...       0.00
freq.    3216.13  E(vib)   ...       0.00

------------
INNER ENERGY
------------

The inner energy is: U= E(el) + E(ZPE) + E(vib) + E(rot) + E(trans)
    E(el)   - is the total energy from the electronic structure calculation
              = E(kin-el) + E(nuc-el) + E(el-el) + E(nuc-nuc)
    E(ZPE)  - the the zero temperature vibrational energy from the frequency calculation
    E(vib)  - the the finite temperature correction to E(ZPE) due to population
              of excited vibrational states
    E(rot)  - is the rotational thermal energy
    E(trans)- is the translational thermal energy

Summary of contributions to the inner energy U:
Electronic energy                ...   -306.88238019 Eh
Zero point energy                ...      0.17185953 Eh     107.84 kcal/mol
Thermal vibrational correction   ...      0.00615785 Eh       3.86 kcal/mol
Thermal rotational correction    ...      0.00141627 Eh       0.89 kcal/mol
Thermal translational correction ...      0.00141627 Eh       0.89 kcal/mol
-----------------------------------------------------------------------
Total thermal energy                   -306.70153026 Eh

Summary of corrections to the electronic energy:
(perhaps to be used in another calculation)
Total thermal correction                  0.00899040 Eh       5.64 kcal/mol
Non-thermal (ZPE) correction              0.17185953 Eh     107.84 kcal/mol
-----------------------------------------------------------------------
Total correction                          0.18084993 Eh     113.48 kcal/mol

--------
ENTHALPY
--------

The enthalpy is H = U + kB*T
                kB is Boltzmann's constant
Total free energy                 ...   -306.70153026 Eh
Thermal Enthalpy correction       ...      0.00094421 Eh       0.59 kcal/mol
-----------------------------------------------------------------------
Total Enthalpy                    ...   -306.70058605 Eh

Note: Rotational entropy computed according to Herzberg
Infrared and Raman Spectra, Chapter V,1, Van Nostrand Reinhold, 1945
Point Group:  C2, Symmetry Number:   2
Rotational constants in cm-1:     0.161715     0.057173     0.044883

Vibrational entropy computed according to the QRRHO of S. Grimme
Chem.Eur.J. 2012 18 9955

-------
ENTROPY
-------

The entropy contributions are T*S = T*(S(el)+S(vib)+S(rot)+S(trans))
     S(el)   - electronic entropy
     S(vib)  - vibrational entropy
     S(rot)  - rotational entropy
     S(trans)- translational entropy
The entropies will be listed as multiplied by the temperature to get
units of energy

Electronic entropy                ...      0.00000000 Eh      0.00 kcal/mol
Vibrational entropy               ...      0.01051522 Eh      6.60 kcal/mol
Rotational entropy                ...      0.01253266 Eh      7.86 kcal/mol
Translational entropy             ...      0.01887358 Eh     11.84 kcal/mol
-----------------------------------------------------------------------
Final entropy term                ...      0.04192146 Eh     26.31 kcal/mol

In case the symmetry of your molecule has not been determined correctly
or in case you have a reason to use a different symmetry number we print
out the resulting rotational entropy values for sn=1,12 :
 --------------------------------------------------------
|  sn= 1 | S(rot)=       0.01318712 Eh      8.28 kcal/mol|
|  sn= 2 | S(rot)=       0.01253266 Eh      7.86 kcal/mol|
|  sn= 3 | S(rot)=       0.01214983 Eh      7.62 kcal/mol|
|  sn= 4 | S(rot)=       0.01187821 Eh      7.45 kcal/mol|
|  sn= 5 | S(rot)=       0.01166752 Eh      7.32 kcal/mol|
|  sn= 6 | S(rot)=       0.01149537 Eh      7.21 kcal/mol|
|  sn= 7 | S(rot)=       0.01134983 Eh      7.12 kcal/mol|
|  sn= 8 | S(rot)=       0.01122375 Eh      7.04 kcal/mol|
|  sn= 9 | S(rot)=       0.01111254 Eh      6.97 kcal/mol|
|  sn=10 | S(rot)=       0.01101306 Eh      6.91 kcal/mol|
|  sn=11 | S(rot)=       0.01092307 Eh      6.85 kcal/mol|
|  sn=12 | S(rot)=       0.01084092 Eh      6.80 kcal/mol|
 --------------------------------------------------------

-------------------
GIBBS FREE ENERGY

                             ****ORCA TERMINATED NORMALLY****
TOTAL RUN TIME: 0 days 0 hours 7 minutes 3 seconds 120 msec
