                         Program Version 5.0.3 -  RELEASE  -
|  1> ! Opt FREQ wB97X D4 Def2-SVP SlowConv TightSCF DEFGRID2 Def2/J RIJCOSX
|  2> %MAXCORE 4000
|  3> %scf MaxIter 20000 end
|  4> %geom
|  5> MaxIter 500
|  6> end
|  7> %PAL NPROCS 8 END
|  8>
|  9> * xyz 0 1
| 10> C 0.21374 0.6665 -1.19315
| 11> C 0.08238 -0.65893 -1.18301
| 12> N 0.06264 1.07587 0.10556
| 13> N -0.11163 -1.07537 0.14808
| 14> C 0.01283 -0.00054 0.97042
| 15> H 0.26521 1.31927 -2.04251
| 16> H 0.25386 -1.40502 -1.92937
| 17> C 0.11374 2.45591 0.52619
| 18> C -0.33392 -2.45497 0.57021
| 19> H -0.00737 3.11212 -0.33468
| 20> H -0.97748 -2.95781 -0.193
| 21> H 0.6252 -3.06108 0.68527
| 22> H 1.11713 2.62337 0.99629
| 23> H -0.68029 2.68346 1.26108
| 24> H -0.86475 -2.41845 1.55738
| 25> **                         ****END OF INPUT****
 Total Charge           Charge          ....    0
 Multiplicity           Mult            ....    1
 Number of Electrons    NEL             ....   52
Dispersion correction           -0.001723365
FINAL SINGLE POINT ENERGY      -304.486104115505
Dispersion correction            ... Starting D4
Dispersion correction           -0.001727807
FINAL SINGLE POINT ENERGY      -304.496033813245
Dispersion correction            ... Starting D4
Dispersion correction           -0.001728769
FINAL SINGLE POINT ENERGY      -304.497899307602
Dispersion correction            ... Starting D4
FINAL SINGLE POINT ENERGY      -304.498430348883
FINAL SINGLE POINT ENERGY      -304.498702132311
FINAL SINGLE POINT ENERGY      -304.498806778077
FINAL SINGLE POINT ENERGY      -304.498922491863
FINAL SINGLE POINT ENERGY      -304.499096112387
FINAL SINGLE POINT ENERGY      -304.499327066801
FINAL SINGLE POINT ENERGY      -304.499598138577
FINAL SINGLE POINT ENERGY      -304.499764999614
FINAL SINGLE POINT ENERGY      -304.499876140973
FINAL SINGLE POINT ENERGY      -304.499942119667
FINAL SINGLE POINT ENERGY      -304.499964648150
FINAL SINGLE POINT ENERGY      -304.500006230525
FINAL SINGLE POINT ENERGY      -304.500027417172
Dispersion correction           -0.001729011
FINAL SINGLE POINT ENERGY      -304.500054140737
Dispersion correction            ... Starting D4
Dispersion correction           -0.001729010
FINAL SINGLE POINT ENERGY      -304.500062745440
Dispersion correction            ... Starting D4
                    ***********************HURRAY********************

CARTESIAN COORDINATES (ANGSTROEM)
---------------------------------
  C      0.394252    0.626738   -1.171393
  C      0.262674   -0.721303   -1.162495
  N      0.054192    1.052045    0.102745
  N     -0.149566   -1.056763    0.117049
  C     -0.288949    0.026454    0.928895
  H      0.698088    1.307576   -1.964587
  H      0.427880   -1.458482   -1.946366
  C      0.061422    2.435535    0.523572
  C     -0.413189   -2.410153    0.552989
  H     -0.613716    3.041408   -0.100459
  H     -1.243417   -2.856165   -0.016316
  H      0.479912   -3.043104    0.435559
  H      1.075068    2.862069    0.468759
  H     -0.285232    2.467271    1.563212
  H     -0.688129   -2.368796    1.613595

 Multiplicity           Mult            ....    1
 Number of Electrons    NEL             ....   52
 Basis Dimension        Dim             ....  138

ORBITAL ENERGIES
----------------

  NO   OCC          E(Eh)            E(eV)
   0   2.0000     -14.444241      -393.0478
   1   2.0000     -14.444227      -393.0474
   2   2.0000     -10.303204      -280.3644
   3   2.0000     -10.303150      -280.3630
   4   2.0000     -10.295276      -280.1487
   5   2.0000     -10.294688      -280.1327
   6   2.0000     -10.264763      -279.3184
   7   2.0000      -1.142857       -31.0987
   8   2.0000      -1.031498       -28.0685
   9   2.0000      -0.894102       -24.3298
  10   2.0000      -0.843023       -22.9398
  11   2.0000      -0.798636       -21.7320
  12   2.0000      -0.708671       -19.2839
  13   2.0000      -0.679045       -18.4778
  14   2.0000      -0.634022       -17.2526
  15   2.0000      -0.586904       -15.9705
  16   2.0000      -0.561062       -15.2673
  17   2.0000      -0.551160       -14.9978
  18   2.0000      -0.540946       -14.7199
  19   2.0000      -0.536747       -14.6056
  20   2.0000      -0.492634       -13.4053
  21   2.0000      -0.483149       -13.1472
  22   2.0000      -0.482406       -13.1269
  23   2.0000      -0.368463       -10.0264
  24   2.0000      -0.321142        -8.7387
  25   2.0000      -0.305258        -8.3065
  26   0.0000       0.118704         3.2301
  27   0.0000       0.144900         3.9429
  28   0.0000       0.162136         4.4119
  29   0.0000       0.164402         4.4736
  30   0.0000       0.190122         5.1735

MULLIKEN ATOMIC CHARGES
-----------------------
   0 C :    0.033750
   1 C :    0.033356
   2 N :   -0.245985
   3 N :   -0.245937
   4 C :   -0.120991
   5 H :    0.030338
   6 H :    0.030488
   7 C :    0.104173
   8 C :    0.103729
   9 H :    0.038936
  10 H :    0.040342
  11 H :    0.039105
  12 H :    0.040123
  13 H :    0.059220
  14 H :    0.059355
Sum of atomic charges:    0.0000000

LOEWDIN ATOMIC CHARGES
----------------------
   0 C :   -0.036731
   1 C :   -0.036792
   2 N :    0.015794
   3 N :    0.015814
   4 C :   -0.251095
   5 H :    0.027932
   6 H :    0.027956
   7 C :    0.029528
   8 C :    0.029469
   9 H :    0.024591
  10 H :    0.024798
  11 H :    0.024609
  12 H :    0.024714
  13 H :    0.039681
  14 H :    0.039730

  Mayer bond orders larger than 0.100000
B(  0-C ,  1-C ) :   1.6448 B(  0-C ,  2-N ) :   1.1255 B(  0-C ,  5-H ) :   0.9887
B(  1-C ,  3-N ) :   1.1257 B(  1-C ,  6-H ) :   0.9887 B(  2-N ,  4-C ) :   1.2241
B(  2-N ,  7-C ) :   0.9581 B(  3-N ,  4-C ) :   1.2241 B(  3-N ,  8-C ) :   0.9580
B(  7-C ,  9-H ) :   0.9793 B(  7-C , 12-H ) :   0.9795 B(  7-C , 13-H ) :   0.9722
B(  8-C , 10-H ) :   0.9795 B(  8-C , 11-H ) :   0.9792 B(  8-C , 14-H ) :   0.9722

Dispersion correction           -0.001729007
FINAL SINGLE POINT ENERGY      -304.500065608847

DIPOLE MOMENT
-------------
                                X             Y             Z
Electronic contribution:      0.31756      -0.03731      -1.05857
Nuclear contribution   :     -0.03981       0.00383       0.11482
                        -----------------------------------------
Total Dipole Moment    :      0.27775      -0.03349      -0.94375
                        -----------------------------------------
Magnitude (a.u.)       :      0.98434
Magnitude (Debye)      :      2.50200

Dispersion correction in the Hessian             ... Starting D4

VIBRATIONAL FREQUENCIES
-----------------------

Scaling factor for frequencies =  1.000000000  (already applied!)

   0:         0.00 cm**-1
   1:         0.00 cm**-1
   2:         0.00 cm**-1
   3:         0.00 cm**-1
   4:         0.00 cm**-1
   5:         0.00 cm**-1
   6:        92.33 cm**-1
   7:        98.14 cm**-1
   8:       195.60 cm**-1
   9:       276.94 cm**-1
  10:       296.67 cm**-1
  11:       445.66 cm**-1
  12:       633.88 cm**-1
  13:       637.13 cm**-1
  14:       639.00 cm**-1
  15:       738.63 cm**-1
  16:       768.54 cm**-1
  17:       866.08 cm**-1
  18:      1024.64 cm**-1
  19:      1037.51 cm**-1
  20:      1082.41 cm**-1
  21:      1094.10 cm**-1
  22:      1102.67 cm**-1
  23:      1148.35 cm**-1
  24:      1151.53 cm**-1
  25:      1244.47 cm**-1
  26:      1376.00 cm**-1
  27:      1410.22 cm**-1
  28:      1429.01 cm**-1
  29:      1431.42 cm**-1
  30:      1453.01 cm**-1
  31:      1471.73 cm**-1
  32:      1474.07 cm**-1
  33:      1491.05 cm**-1
  34:      1494.42 cm**-1
  35:      1514.95 cm**-1
  36:      1666.36 cm**-1
  37:      3068.94 cm**-1
  38:      3069.81 cm**-1
  39:      3159.43 cm**-1
  40:      3160.40 cm**-1
  41:      3216.54 cm**-1
  42:      3217.40 cm**-1
  43:      3279.85 cm**-1
  44:      3302.75 cm**-1

IR SPECTRUM
-----------

 Mode   freq       eps      Int      T**2         TX        TY        TZ
       cm**-1   L/(mol*cm) km/mol    a.u.
----------------------------------------------------------------------------
  6:     92.33   0.000092    0.47  0.000312  ( 0.016615  0.000418  0.005947)
  7:     98.14   0.000001    0.00  0.000002  (-0.001089  0.000970  0.000500)
  8:    195.60   0.003420   17.28  0.005456  ( 0.070340 -0.007856  0.021127)
  9:    276.94   0.000005    0.02  0.000006  (-0.001584  0.000055 -0.001730)
 10:    296.67   0.000691    3.49  0.000727  ( 0.007627 -0.001255 -0.025823)
 11:    445.66   0.001870    9.45  0.001310  ( 0.003980  0.035968 -0.000214)
 12:    633.88   0.000013    0.07  0.000006  ( 0.002483 -0.000352  0.000318)
 13:    637.13   0.000269    1.36  0.000132  ( 0.004848 -0.000479 -0.010394)
 14:    639.00   0.000204    1.03  0.000100  ( 0.001099 -0.000349 -0.009918)
 15:    738.63   0.009432   47.66  0.003985  (-0.060145  0.005365 -0.018403)
 16:    768.54   0.004633   23.41  0.001881  ( 0.004382  0.043148 -0.000325)
 17:    866.08   0.000032    0.16  0.000011  (-0.003302  0.000026 -0.000729)
 18:   1024.64   0.000257    1.30  0.000078  ( 0.000441  0.008818  0.000443)
 19:   1037.51   0.000047    0.24  0.000014  (-0.000938  0.000398  0.003609)
 20:   1082.41   0.000928    4.69  0.000268  (-0.004585  0.001325  0.015648)
 21:   1094.10   0.000114    0.58  0.000033  ( 0.001300  0.004824 -0.002761)
 22:   1102.67   0.001667    8.43  0.000472  ( 0.006235 -0.001213 -0.020773)
 23:   1148.35   0.000013    0.07  0.000004  (-0.000879  0.001630 -0.000323)
 24:   1151.53   0.000008    0.04  0.000002  ( 0.000517 -0.001384  0.000115)
 25:   1244.47   0.007939   40.12  0.001991  ( 0.004261  0.044407 -0.000728)
 26:   1376.00   0.000328    1.66  0.000074  (-0.000922 -0.008580  0.000124)
 27:   1410.22   0.000098    0.50  0.000022  (-0.001841 -0.000294  0.004269)
 28:   1429.01   0.001258    6.36  0.000275  ( 0.000911 -0.012633 -0.010690)
 29:   1431.42   0.001663    8.40  0.000362  (-0.005828 -0.016524  0.007449)
 30:   1453.01   0.000009    0.04  0.000002  ( 0.000548  0.000423 -0.001183)
 31:   1471.73   0.001112    5.62  0.000236  (-0.013396  0.004363 -0.006103)
 32:   1474.07   0.002765   13.97  0.000585  (-0.022322  0.005151 -0.007777)
 33:   1491.05   0.003177   16.06  0.000665  (-0.003654 -0.025459 -0.001849)
 34:   1494.42   0.005761   29.11  0.001203  (-0.011126  0.000844  0.032839)
 35:   1514.95   0.012064   60.97  0.002485  ( 0.005169  0.049581 -0.000379)
 36:   1666.36   0.000103    0.52  0.000019  (-0.001174  0.000128  0.004237)
 37:   3068.94   0.020201  102.09  0.002054  ( 0.004846  0.045062 -0.000219)
 38:   3069.81   0.000012    0.06  0.000001  (-0.000089 -0.001096  0.000156)
 39:   3159.43   0.003272   16.54  0.000323  ( 0.016971 -0.001807  0.005652)
 40:   3160.40   0.004143   20.94  0.000409  ( 0.019433 -0.002014  0.005236)
 41:   3216.54   0.000235    1.19  0.000023  ( 0.001069 -0.002029 -0.004183)
 42:   3217.40   0.000177    0.89  0.000017  ( 0.001386  0.002111 -0.003278)
 43:   3279.85   0.000286    1.45  0.000027  ( 0.000543  0.005184 -0.000200)
 44:   3302.75   0.000065    0.33  0.000006  (-0.000649  0.000325  0.002379)

--------------------------
THERMOCHEMISTRY AT 298.15K
--------------------------

Temperature         ... 298.15 K
Pressure            ... 1.00 atm
Total Mass          ... 96.13 AMU

Throughout the following assumptions are being made:
  (1) The electronic state is orbitally nondegenerate
  (2) There are no thermally accessible electronically excited states
  (3) Hindered rotations indicated by low frequency modes are not
      treated as such but are treated as vibrations and this may
      cause some error
  (4) All equations used are the standard statistical mechanics
      equations for an ideal gas
  (5) All vibrations are strictly harmonic

freq.      92.33  E(vib)   ...       0.47
freq.      98.14  E(vib)   ...       0.46
freq.     195.60  E(vib)   ...       0.36
freq.     276.94  E(vib)   ...       0.28
freq.     296.67  E(vib)   ...       0.27
freq.     445.66  E(vib)   ...       0.17
freq.     633.88  E(vib)   ...       0.09
freq.     637.13  E(vib)   ...       0.09
freq.     639.00  E(vib)   ...       0.09
freq.     738.63  E(vib)   ...       0.06
freq.     768.54  E(vib)   ...       0.06
freq.     866.08  E(vib)   ...       0.04
freq.    1024.64  E(vib)   ...       0.02
freq.    1037.51  E(vib)   ...       0.02
freq.    1082.41  E(vib)   ...       0.02
freq.    1094.10  E(vib)   ...       0.02
freq.    1102.67  E(vib)   ...       0.02
freq.    1148.35  E(vib)   ...       0.01
freq.    1151.53  E(vib)   ...       0.01
freq.    1244.47  E(vib)   ...       0.01
freq.    1376.00  E(vib)   ...       0.01
freq.    1410.22  E(vib)   ...       0.00
freq.    1429.01  E(vib)   ...       0.00
freq.    1431.42  E(vib)   ...       0.00
freq.    1453.01  E(vib)   ...       0.00
freq.    1471.73  E(vib)   ...       0.00
freq.    1474.07  E(vib)   ...       0.00
freq.    1491.05  E(vib)   ...       0.00
freq.    1494.42  E(vib)   ...       0.00
freq.    1514.95  E(vib)   ...       0.00
freq.    1666.36  E(vib)   ...       0.00
freq.    3068.94  E(vib)   ...       0.00
freq.    3069.81  E(vib)   ...       0.00
freq.    3159.43  E(vib)   ...       0.00
freq.    3160.40  E(vib)   ...       0.00
freq.    3216.54  E(vib)   ...       0.00
freq.    3217.40  E(vib)   ...       0.00
freq.    3279.85  E(vib)   ...       0.00
freq.    3302.75  E(vib)   ...       0.00

------------
INNER ENERGY
------------

The inner energy is: U= E(el) + E(ZPE) + E(vib) + E(rot) + E(trans)
    E(el)   - is the total energy from the electronic structure calculation
              = E(kin-el) + E(nuc-el) + E(el-el) + E(nuc-nuc)
    E(ZPE)  - the the zero temperature vibrational energy from the frequency calculation
    E(vib)  - the the finite temperature correction to E(ZPE) due to population
              of excited vibrational states
    E(rot)  - is the rotational thermal energy
    E(trans)- is the translational thermal energy

Summary of contributions to the inner energy U:
Electronic energy                ...   -304.50006561 Eh
Zero point energy                ...      0.12817344 Eh      80.43 kcal/mol
Thermal vibrational correction   ...      0.00412697 Eh       2.59 kcal/mol
Thermal rotational correction    ...      0.00141627 Eh       0.89 kcal/mol
Thermal translational correction ...      0.00141627 Eh       0.89 kcal/mol
-----------------------------------------------------------------------
Total thermal energy                   -304.36493265 Eh

Summary of corrections to the electronic energy:
(perhaps to be used in another calculation)
Total thermal correction                  0.00695952 Eh       4.37 kcal/mol
Non-thermal (ZPE) correction              0.12817344 Eh      80.43 kcal/mol
-----------------------------------------------------------------------
Total correction                          0.13513296 Eh      84.80 kcal/mol

--------
ENTHALPY
--------

The enthalpy is H = U + kB*T
                kB is Boltzmann's constant
Total free energy                 ...   -304.36493265 Eh
Thermal Enthalpy correction       ...      0.00094421 Eh       0.59 kcal/mol
-----------------------------------------------------------------------
Total Enthalpy                    ...   -304.36398844 Eh

Note: Only C1 symmetry has been detected, increase convergence thresholds
      if your molecule has a higher symmetry. Symmetry factor of 1.0 is
      used for the rotational entropy correction.

Note: Rotational entropy computed according to Herzberg
Infrared and Raman Spectra, Chapter V,1, Van Nostrand Reinhold, 1945
Point Group:  C1, Symmetry Number:   1
Rotational constants in cm-1:     0.233618     0.070445     0.055272

Vibrational entropy computed according to the QRRHO of S. Grimme
Chem.Eur.J. 2012 18 9955

-------
ENTROPY
-------

The entropy contributions are T*S = T*(S(el)+S(vib)+S(rot)+S(trans))
     S(el)   - electronic entropy
     S(vib)  - vibrational entropy
     S(rot)  - rotational entropy
     S(trans)- translational entropy
The entropies will be listed as multiplied by the temperature to get
units of energy

Electronic entropy                ...      0.00000000 Eh      0.00 kcal/mol
Vibrational entropy               ...      0.00705511 Eh      4.43 kcal/mol
Rotational entropy                ...      0.01281662 Eh      8.04 kcal/mol
Translational entropy             ...      0.01881539 Eh     11.81 kcal/mol
-----------------------------------------------------------------------
Final entropy term                ...      0.03868712 Eh     24.28 kcal/mol

In case the symmetry of your molecule has not been determined correctly
or in case you have a reason to use a different symmetry number we print
out the resulting rotational entropy values for sn=1,12 :
 --------------------------------------------------------
|  sn= 1 | S(rot)=       0.01281662 Eh      8.04 kcal/mol|
|  sn= 2 | S(rot)=       0.01216216 Eh      7.63 kcal/mol|
|  sn= 3 | S(rot)=       0.01177933 Eh      7.39 kcal/mol|
|  sn= 4 | S(rot)=       0.01150770 Eh      7.22 kcal/mol|
|  sn= 5 | S(rot)=       0.01129702 Eh      7.09 kcal/mol|
|  sn= 6 | S(rot)=       0.01112487 Eh      6.98 kcal/mol|
|  sn= 7 | S(rot)=       0.01097933 Eh      6.89 kcal/mol|
|  sn= 8 | S(rot)=       0.01085325 Eh      6.81 kcal/mol|
|  sn= 9 | S(rot)=       0.01074204 Eh      6.74 kcal/mol|
|  sn=10 | S(rot)=       0.01064256 Eh      6.68 kcal/mol|
|  sn=11 | S(rot)=       0.01055257 Eh      6.62 kcal/mol|
|  sn=12 | S(rot)=       0.01047042 Eh      6.57 kcal/mol|
 --------------------------------------------------------

-------------------
GIBBS FREE ENERGY
-------------------

The Gibbs free energy is G = H - T*S

Total enthalpy                    ...   -304.36398844 Eh
Total entropy correction          ...     -0.03868712 Eh    -24.28 kcal/mol
-----------------------------------------------------------------------

                             ****ORCA TERMINATED NORMALLY****
TOTAL RUN TIME: 0 days 0 hours 7 minutes 15 seconds 534 msec
