                         Program Version 5.0.3 -  RELEASE  -
|  1> ! Opt FREQ wB97X D4 Def2-SVP SlowConv TightSCF DEFGRID2 Def2/J RIJCOSX
|  2> %MAXCORE 4000
|  3> %scf MaxIter 20000 end
|  4> %geom
|  5> MaxIter 500
|  6> end
|  7> %PAL NPROCS 8 END
|  8>
|  9> * xyz 0 1
| 10> C 0.03919 0.71782 -0.62864
| 11> C -0.01074 -0.67254 -0.57889
| 12> N 0.0477 1.07761 0.70077
| 13> N 0.08148 -1.08239 0.74453
| 14> C -0.05871 0.01757 1.54618
| 15> C -0.02711 2.44672 1.12733
| 16> C 0.02008 -2.50234 1.13973
| 17> H -0.91776 2.95299 0.78072
| 18> H -0.98956 -2.87691 0.95298
| 19> H 0.74184 -3.15512 0.62765
| 20> H 0.8555 2.97587 0.74053
| 21> H 0.00915 2.43819 2.22222
| 22> H 0.20264 -2.52979 2.20843
| 23> C -0.06395 1.66028 -1.78721
| 24> C -0.02524 -1.64765 -1.72383
| 25> H 0.90134 2.17426 -1.81298
| 26> H 0.83527 -2.32926 -1.70948
| 27> H -0.92449 -2.26771 -1.71753
| 28> H -0.81779 2.44004 -1.64244
| 29> H -0.16773 1.16085 -2.75122
| 30> H -0.01938 -1.15334 -2.6966
| 31> **                         ****END OF INPUT****
 Total Charge           Charge          ....    0
 Multiplicity           Mult            ....    1
 Number of Electrons    NEL             ....   68
Dispersion correction           -0.002973014
FINAL SINGLE POINT ENERGY      -383.051613469074
Dispersion correction            ... Starting D4
Dispersion correction           -0.002982580
FINAL SINGLE POINT ENERGY      -383.063659475474
Dispersion correction            ... Starting D4
Dispersion correction           -0.002982635
FINAL SINGLE POINT ENERGY      -383.066660405373
Dispersion correction            ... Starting D4
FINAL SINGLE POINT ENERGY      -383.067135976776
FINAL SINGLE POINT ENERGY      -383.067241749051
FINAL SINGLE POINT ENERGY      -383.067299328245
FINAL SINGLE POINT ENERGY      -383.067360004245
FINAL SINGLE POINT ENERGY      -383.067394565453
FINAL SINGLE POINT ENERGY      -383.067418187794
Dispersion correction           -0.002981818
FINAL SINGLE POINT ENERGY      -383.067425675421
Dispersion correction            ... Starting D4
Dispersion correction           -0.002981771
FINAL SINGLE POINT ENERGY      -383.067427604247
Dispersion correction            ... Starting D4
                    ***********************HURRAY********************

CARTESIAN COORDINATES (ANGSTROEM)
---------------------------------
  C     -0.020483    0.672482   -0.641209
  C     -0.030506   -0.687496   -0.640564
  N      0.011053    1.050494    0.700102
  N     -0.004783   -1.064606    0.701183
  C      0.021242   -0.006801    1.554311
  C      0.032907    2.422592    1.151479
  C     -0.003872   -2.436391    1.154256
  H     -0.871586    2.964627    0.832131
  H     -0.911450   -2.967700    0.825851
  H      0.877088   -2.981043    0.778592
  H      0.916352    2.955960    0.765741
  H      0.073396    2.408402    2.247067
  H      0.025061   -2.421547    2.250167
  C     -0.036074    1.654061   -1.764248
  C     -0.056480   -1.669737   -1.762721
  H      0.856376    2.300889   -1.755171
  H      0.834299   -2.319052   -1.758530
  H     -0.943078   -2.322874   -1.715477
  H     -0.921200    2.309652   -1.722595
  H     -0.055604    1.129270   -2.729581
  H     -0.080929   -1.146034   -2.728533

 Multiplicity           Mult            ....    1
 Number of Electrons    NEL             ....   68
 Basis Dimension        Dim             ....  186

ORBITAL ENERGIES
----------------

  NO   OCC          E(Eh)            E(eV)
   0   2.0000     -14.434412      -392.7803
   1   2.0000     -14.434393      -392.7798
   2   2.0000     -10.299229      -280.2563
   3   2.0000     -10.299202      -280.2555
   4   2.0000     -10.289436      -279.9898
   5   2.0000     -10.288908      -279.9754
   6   2.0000     -10.283332      -279.8237
   7   2.0000     -10.283278      -279.8222
   8   2.0000     -10.256977      -279.1065
   9   2.0000      -1.135137       -30.8886
  10   2.0000      -1.026857       -27.9422
  11   2.0000      -0.914872       -24.8949
  12   2.0000      -0.868080       -23.6216
  13   2.0000      -0.857125       -23.3236
  14   2.0000      -0.782628       -21.2964
  15   2.0000      -0.777738       -21.1633
  16   2.0000      -0.679552       -18.4916
  17   2.0000      -0.672959       -18.3122
  18   2.0000      -0.611615       -16.6429
  19   2.0000      -0.591861       -16.1054
  20   2.0000      -0.553607       -15.0644
  21   2.0000      -0.544310       -14.8114
  22   2.0000      -0.537941       -14.6381
  23   2.0000      -0.525980       -14.3127
  24   2.0000      -0.524479       -14.2718
  25   2.0000      -0.515676       -14.0323
  26   2.0000      -0.507620       -13.8130
  27   2.0000      -0.498170       -13.5559
  28   2.0000      -0.475163       -12.9298
  29   2.0000      -0.471755       -12.8371
  30   2.0000      -0.467648       -12.7253
  31   2.0000      -0.357570        -9.7300
  32   2.0000      -0.298959        -8.1351
  33   2.0000      -0.297809        -8.1038
  34   0.0000       0.133829         3.6417
  35   0.0000       0.135395         3.6843
  36   0.0000       0.151490         4.1223
  37   0.0000       0.151627         4.1260
  38   0.0000       0.178078         4.8458

MULLIKEN ATOMIC CHARGES
-----------------------
   0 C :   -0.102619
   1 C :   -0.102545
   2 N :   -0.249199
   3 N :   -0.249169
   4 C :   -0.132746
   5 C :    0.112172
   6 C :    0.112131
   7 H :    0.032225
   8 H :    0.032039
   9 H :    0.031663
  10 H :    0.031437
  11 H :    0.059431
  12 H :    0.059437
  13 C :    0.083325
  14 C :    0.083241
  15 H :    0.039069
  16 H :    0.039498
  17 H :    0.038881
  18 H :    0.039343
  19 H :    0.021190
  20 H :    0.021197
Sum of atomic charges:    0.0000000

LOEWDIN ATOMIC CHARGES
----------------------
   0 C :   -0.048684
   1 C :   -0.048711
   2 N :    0.012995
   3 N :    0.013016
   4 C :   -0.254024
   5 C :    0.028536
   6 C :    0.028538
   7 H :    0.022120
   8 H :    0.022071
   9 H :    0.022041
  10 H :    0.021982
  11 H :    0.039692
  12 H :    0.039692
  13 C :   -0.057807
  14 C :   -0.057830
  15 H :    0.035697
  16 H :    0.035813
  17 H :    0.035703
  18 H :    0.035816
  19 H :    0.036673
  20 H :    0.036671

  Mayer bond orders larger than 0.100000
B(  0-C ,  1-C ) :   1.6743 B(  0-C ,  2-N ) :   1.1195 B(  0-C , 13-C ) :   1.0902
B(  1-C ,  3-N ) :   1.1194 B(  1-C , 14-C ) :   1.0903 B(  2-N ,  4-C ) :   1.2243
B(  2-N ,  5-C ) :   0.9715 B(  3-N ,  4-C ) :   1.2244 B(  3-N ,  6-C ) :   0.9715
B(  5-C ,  7-H ) :   0.9763 B(  5-C , 10-H ) :   0.9761 B(  5-C , 11-H ) :   0.9698
B(  6-C ,  8-H ) :   0.9763 B(  6-C ,  9-H ) :   0.9762 B(  6-C , 12-H ) :   0.9698
B( 13-C , 15-H ) :   0.9520 B( 13-C , 18-H ) :   0.9519 B( 13-C , 19-H ) :   0.9474
B( 14-C , 16-H ) :   0.9521 B( 14-C , 17-H ) :   0.9518 B( 14-C , 20-H ) :   0.9474

Dispersion correction           -0.002981762
FINAL SINGLE POINT ENERGY      -383.067428470674

DIPOLE MOMENT
-------------
                                X             Y             Z
Electronic contribution:      0.05470       0.00150       3.52215
Nuclear contribution   :     -0.07670      -0.00198      -4.72765
                        -----------------------------------------
Total Dipole Moment    :     -0.02200      -0.00048      -1.20550
                        -----------------------------------------
Magnitude (a.u.)       :      1.20570
Magnitude (Debye)      :      3.06464

Dispersion correction in the Hessian             ... Starting D4

VIBRATIONAL FREQUENCIES
-----------------------

Scaling factor for frequencies =  1.000000000  (already applied!)

   0:         0.00 cm**-1
   1:         0.00 cm**-1
   2:         0.00 cm**-1
   3:         0.00 cm**-1
   4:         0.00 cm**-1
   5:         0.00 cm**-1
   6:       130.79 cm**-1
   7:       133.39 cm**-1
   8:       152.78 cm**-1
   9:       166.77 cm**-1
  10:       185.69 cm**-1
  11:       188.44 cm**-1
  12:       273.40 cm**-1
  13:       279.39 cm**-1
  14:       292.22 cm**-1
  15:       303.41 cm**-1
  16:       326.73 cm**-1
  17:       552.19 cm**-1
  18:       584.71 cm**-1
  19:       634.23 cm**-1
  20:       636.63 cm**-1
  21:       677.71 cm**-1
  22:       735.27 cm**-1
  23:       877.04 cm**-1
  24:       965.78 cm**-1
  25:      1050.37 cm**-1
  26:      1068.30 cm**-1
  27:      1083.30 cm**-1
  28:      1088.59 cm**-1
  29:      1114.31 cm**-1
  30:      1148.27 cm**-1
  31:      1149.58 cm**-1
  32:      1186.26 cm**-1
  33:      1262.14 cm**-1
  34:      1393.47 cm**-1
  35:      1402.98 cm**-1
  36:      1418.41 cm**-1
  37:      1428.20 cm**-1
  38:      1435.12 cm**-1
  39:      1451.81 cm**-1
  40:      1454.00 cm**-1
  41:      1455.72 cm**-1
  42:      1458.48 cm**-1
  43:      1466.58 cm**-1
  44:      1472.13 cm**-1
  45:      1473.41 cm**-1
  46:      1487.06 cm**-1
  47:      1497.11 cm**-1
  48:      1499.16 cm**-1
  49:      1503.15 cm**-1
  50:      1769.46 cm**-1
  51:      3060.07 cm**-1
  52:      3060.44 cm**-1
  53:      3062.24 cm**-1
  54:      3063.99 cm**-1
  55:      3143.36 cm**-1
  56:      3143.55 cm**-1
  57:      3149.62 cm**-1
  58:      3149.78 cm**-1
  59:      3180.78 cm**-1
  60:      3181.31 cm**-1
  61:      3213.56 cm**-1
  62:      3213.89 cm**-1

IR SPECTRUM
-----------

 Mode   freq       eps      Int      T**2         TX        TY        TZ
       cm**-1   L/(mol*cm) km/mol    a.u.
----------------------------------------------------------------------------
  6:    130.79   0.000265    1.34  0.000632  (-0.025137  0.000387 -0.000510)
  7:    133.39   0.000001    0.01  0.000003  ( 0.001477  0.000817 -0.000033)
  8:    152.78   0.000002    0.01  0.000004  ( 0.001241 -0.001570  0.000026)
  9:    166.77   0.000641    3.24  0.001200  (-0.034635  0.000243  0.000333)
 10:    185.69   0.001400    7.07  0.002352  ( 0.048464  0.000020 -0.001874)
 11:    188.44   0.000029    0.15  0.000048  (-0.006869  0.000956  0.000399)
 12:    273.40   0.000019    0.09  0.000021  ( 0.000596 -0.000906 -0.004472)
 13:    279.39   0.000348    1.76  0.000389  (-0.000071 -0.019712  0.000054)
 14:    292.22   0.000091    0.46  0.000097  ( 0.009835 -0.000111  0.000258)
 15:    303.41   0.000548    2.77  0.000564  ( 0.000647 -0.000081  0.023739)
 16:    326.73   0.000000    0.00  0.000000  (-0.000095  0.000143 -0.000193)
 17:    552.19   0.000258    1.30  0.000146  ( 0.000017  0.012066  0.000001)
 18:    584.71   0.000957    4.84  0.000511  (-0.000163 -0.022605  0.000013)
 19:    634.23   0.000710    3.59  0.000350  ( 0.018681  0.000040 -0.000765)
 20:    636.63   0.000383    1.94  0.000188  ( 0.000938 -0.000007  0.013670)
 21:    677.71   0.000000    0.00  0.000000  (-0.000005  0.000315  0.000103)
 22:    735.27   0.001513    7.65  0.000642  ( 0.000519 -0.000004  0.025335)
 23:    877.04   0.004133   20.88  0.001470  (-0.000289 -0.038345  0.000009)
 24:    965.78   0.000152    0.77  0.000049  ( 0.000193 -0.000024  0.007011)
 25:   1050.37   0.000277    1.40  0.000082  ( 0.009048 -0.000501 -0.000327)
 26:   1068.30   0.000001    0.00  0.000000  (-0.000066 -0.000365 -0.000202)
 27:   1083.30   0.000009    0.05  0.000003  ( 0.000096 -0.001632  0.000068)
 28:   1088.59   0.000023    0.12  0.000007  (-0.000014  0.000026  0.002588)
 29:   1114.31   0.000089    0.45  0.000025  (-0.000027 -0.004987 -0.000001)
 30:   1148.27   0.000010    0.05  0.000003  (-0.001656 -0.000043 -0.000111)
 31:   1149.58   0.000001    0.01  0.000000  ( 0.000275  0.000457  0.000001)
 32:   1186.26   0.000470    2.37  0.000124  ( 0.000164  0.000001  0.011116)
 33:   1262.14   0.001062    5.37  0.000263  (-0.000063 -0.016203 -0.000008)
 34:   1393.47   0.000040    0.20  0.000009  (-0.000165 -0.002996  0.000018)
 35:   1402.98   0.000035    0.18  0.000008  (-0.000718 -0.000092 -0.002692)
 36:   1418.41   0.000466    2.36  0.000103  ( 0.000350 -0.000142  0.010122)
 37:   1428.20   0.001678    8.48  0.000367  ( 0.000209 -0.019143 -0.000387)
 38:   1435.12   0.002395   12.10  0.000521  (-0.001583  0.000366 -0.022761)
 39:   1451.81   0.007483   37.82  0.001609  ( 0.000233  0.040106 -0.000125)
 40:   1454.00   0.000681    3.44  0.000146  ( 0.000372 -0.012079 -0.000182)
 41:   1455.72   0.001079    5.45  0.000231  (-0.015001 -0.000171 -0.002497)
 42:   1458.48   0.003942   19.92  0.000843  (-0.000311 -0.029041  0.000078)
 43:   1466.58   0.005840   29.52  0.001243  (-0.003148 -0.000171 -0.035111)
 44:   1472.13   0.000152    0.77  0.000032  ( 0.005382  0.001635 -0.000819)
 45:   1473.41   0.006536   33.03  0.001384  ( 0.036967  0.000251 -0.004199)
 46:   1487.06   0.000124    0.63  0.000026  (-0.000923  0.000049 -0.005014)
 47:   1497.11   0.003924   19.83  0.000818  ( 0.000472  0.000294 -0.028595)
 48:   1499.16   0.000604    3.05  0.000126  (-0.000025  0.011214  0.000180)
 49:   1503.15   0.011665   58.95  0.002422  (-0.000158 -0.049211 -0.000157)
 50:   1769.46   0.000221    1.12  0.000039  ( 0.000108 -0.000009  0.006244)
 51:   3060.07   0.002497   12.62  0.000255  ( 0.000011  0.015867  0.001687)
 52:   3060.44   0.003226   16.30  0.000329  (-0.000231  0.001384 -0.018081)
 53:   3062.24   0.025003  126.36  0.002548  ( 0.000202  0.050477  0.000088)
 54:   3063.99   0.000652    3.29  0.000066  (-0.000251  0.000871 -0.008098)
 55:   3143.36   0.001249    6.31  0.000124  ( 0.011137  0.000031 -0.000117)
 56:   3143.55   0.002180   11.02  0.000216  (-0.014710  0.000022  0.000198)
 57:   3149.62   0.001414    7.15  0.000140  (-0.011834  0.000068  0.000212)
 58:   3149.78   0.007505   37.93  0.000744  ( 0.027254 -0.000131 -0.000904)
 59:   3180.78   0.001831    9.25  0.000180  ( 0.000079  0.013366 -0.000983)
 60:   3181.31   0.002314   11.69  0.000227  ( 0.000305  0.000873  0.015036)
 61:   3213.56   0.000405    2.05  0.000039  (-0.000192  0.000843 -0.006213)
 62:   3213.89   0.000108    0.54  0.000010  (-0.000071 -0.002042 -0.002502)

--------------------------
THERMOCHEMISTRY AT 298.15K
--------------------------

Temperature         ... 298.15 K
Pressure            ... 1.00 atm
Total Mass          ... 124.19 AMU

Throughout the following assumptions are being made:
  (1) The electronic state is orbitally nondegenerate
  (2) There are no thermally accessible electronically excited states
  (3) Hindered rotations indicated by low frequency modes are not
      treated as such but are treated as vibrations and this may
      cause some error
  (4) All equations used are the standard statistical mechanics
      equations for an ideal gas
  (5) All vibrations are strictly harmonic

freq.     130.79  E(vib)   ...       0.43
freq.     133.39  E(vib)   ...       0.42
freq.     152.78  E(vib)   ...       0.40
freq.     166.77  E(vib)   ...       0.39
freq.     185.69  E(vib)   ...       0.37
freq.     188.44  E(vib)   ...       0.36
freq.     273.40  E(vib)   ...       0.29
freq.     279.39  E(vib)   ...       0.28
freq.     292.22  E(vib)   ...       0.27
freq.     303.41  E(vib)   ...       0.26
freq.     326.73  E(vib)   ...       0.24
freq.     552.19  E(vib)   ...       0.12
freq.     584.71  E(vib)   ...       0.11
freq.     634.23  E(vib)   ...       0.09
freq.     636.63  E(vib)   ...       0.09
freq.     677.71  E(vib)   ...       0.08
freq.     735.27  E(vib)   ...       0.06
freq.     877.04  E(vib)   ...       0.04
freq.     965.78  E(vib)   ...       0.03
freq.    1050.37  E(vib)   ...       0.02
freq.    1068.30  E(vib)   ...       0.02
freq.    1083.30  E(vib)   ...       0.02
freq.    1088.59  E(vib)   ...       0.02
freq.    1114.31  E(vib)   ...       0.01
freq.    1148.27  E(vib)   ...       0.01
freq.    1149.58  E(vib)   ...       0.01
freq.    1186.26  E(vib)   ...       0.01
freq.    1262.14  E(vib)   ...       0.01
freq.    1393.47  E(vib)   ...       0.00
freq.    1402.98  E(vib)   ...       0.00
freq.    1418.41  E(vib)   ...       0.00
freq.    1428.20  E(vib)   ...       0.00
freq.    1435.12  E(vib)   ...       0.00
freq.    1451.81  E(vib)   ...       0.00
freq.    1454.00  E(vib)   ...       0.00
freq.    1455.72  E(vib)   ...       0.00
freq.    1458.48  E(vib)   ...       0.00
freq.    1466.58  E(vib)   ...       0.00
freq.    1472.13  E(vib)   ...       0.00
freq.    1473.41  E(vib)   ...       0.00
freq.    1487.06  E(vib)   ...       0.00
freq.    1497.11  E(vib)   ...       0.00
freq.    1499.16  E(vib)   ...       0.00
freq.    1503.15  E(vib)   ...       0.00
freq.    1769.46  E(vib)   ...       0.00
freq.    3060.07  E(vib)   ...       0.00
freq.    3060.44  E(vib)   ...       0.00
freq.    3062.24  E(vib)   ...       0.00
freq.    3063.99  E(vib)   ...       0.00
freq.    3143.36  E(vib)   ...       0.00
freq.    3143.55  E(vib)   ...       0.00
freq.    3149.62  E(vib)   ...       0.00
freq.    3149.78  E(vib)   ...       0.00
freq.    3180.78  E(vib)   ...       0.00
freq.    3181.31  E(vib)   ...       0.00
freq.    3213.56  E(vib)   ...       0.00
freq.    3213.89  E(vib)   ...       0.00

------------
INNER ENERGY
------------

The inner energy is: U= E(el) + E(ZPE) + E(vib) + E(rot) + E(trans)
    E(el)   - is the total energy from the electronic structure calculation
              = E(kin-el) + E(nuc-el) + E(el-el) + E(nuc-nuc)
    E(ZPE)  - the the zero temperature vibrational energy from the frequency calculation
    E(vib)  - the the finite temperature correction to E(ZPE) due to population
              of excited vibrational states
    E(rot)  - is the rotational thermal energy
    E(trans)- is the translational thermal energy

Summary of contributions to the inner energy U:
Electronic energy                ...   -383.06742847 Eh
Zero point energy                ...      0.18438695 Eh     115.70 kcal/mol
Thermal vibrational correction   ...      0.00716629 Eh       4.50 kcal/mol
Thermal rotational correction    ...      0.00141627 Eh       0.89 kcal/mol
Thermal translational correction ...      0.00141627 Eh       0.89 kcal/mol
-----------------------------------------------------------------------
Total thermal energy                   -382.87304269 Eh

Summary of corrections to the electronic energy:
(perhaps to be used in another calculation)
Total thermal correction                  0.00999883 Eh       6.27 kcal/mol
Non-thermal (ZPE) correction              0.18438695 Eh     115.70 kcal/mol
-----------------------------------------------------------------------
Total correction                          0.19438578 Eh     121.98 kcal/mol

--------
ENTHALPY
--------

The enthalpy is H = U + kB*T
                kB is Boltzmann's constant
Total free energy                 ...   -382.87304269 Eh
Thermal Enthalpy correction       ...      0.00094421 Eh       0.59 kcal/mol
-----------------------------------------------------------------------
Total Enthalpy                    ...   -382.87209848 Eh

Note: Only C1 symmetry has been detected, increase convergence thresholds
      if your molecule has a higher symmetry. Symmetry factor of 1.0 is
      used for the rotational entropy correction.

Note: Rotational entropy computed according to Herzberg
Infrared and Raman Spectra, Chapter V,1, Van Nostrand Reinhold, 1945
Point Group:  C1, Symmetry Number:   1
Rotational constants in cm-1:     0.081975     0.051326     0.032340

Vibrational entropy computed according to the QRRHO of S. Grimme
Chem.Eur.J. 2012 18 9955

-------
ENTROPY
-------

The entropy contributions are T*S = T*(S(el)+S(vib)+S(rot)+S(trans))
     S(el)   - electronic entropy
     S(vib)  - vibrational entropy
     S(rot)  - rotational entropy
     S(trans)- translational entropy
The entropies will be listed as multiplied by the temperature to get
units of energy

Electronic entropy                ...      0.00000000 Eh      0.00 kcal/mol
Vibrational entropy               ...      0.01231597 Eh      7.73 kcal/mol
Rotational entropy                ...      0.01371352 Eh      8.61 kcal/mol
Translational entropy             ...      0.01917803 Eh     12.03 kcal/mol
-----------------------------------------------------------------------
Final entropy term                ...      0.04520753 Eh     28.37 kcal/mol

In case the symmetry of your molecule has not been determined correctly
or in case you have a reason to use a different symmetry number we print
out the resulting rotational entropy values for sn=1,12 :
 --------------------------------------------------------
|  sn= 1 | S(rot)=       0.01371352 Eh      8.61 kcal/mol|
|  sn= 2 | S(rot)=       0.01305907 Eh      8.19 kcal/mol|
|  sn= 3 | S(rot)=       0.01267624 Eh      7.95 kcal/mol|
|  sn= 4 | S(rot)=       0.01240461 Eh      7.78 kcal/mol|
|  sn= 5 | S(rot)=       0.01219392 Eh      7.65 kcal/mol|
|  sn= 6 | S(rot)=       0.01202178 Eh      7.54 kcal/mol|

                             ****ORCA TERMINATED NORMALLY****
TOTAL RUN TIME: 0 days 0 hours 8 minutes 44 seconds 288 msec
