                         Program Version 5.0.3 -  RELEASE  -
|  1> ! Opt FREQ wB97X D4 Def2-SVP SlowConv TightSCF DEFGRID2 Def2/J RIJCOSX
|  2> %MAXCORE 4000
|  3> %scf MaxIter 20000 end
|  4> %geom
|  5> MaxIter 500
|  6> end
|  7> %PAL NPROCS 8 END
|  8>
|  9> * xyz 0 1
| 10> C 0.00036 2.46898 0.5025
| 11> C -0.0074 -2.43587 0.5712
| 12> N 0.0145 1.09338 0.07424
| 13> N 0.03504 -1.06171 0.0925
| 14> C -0.12443 0.66858 -1.22443
| 15> C -0.0778 -0.67142 -1.25549
| 16> C 0.14562 0.06154 0.93376
| 17> C 1.31224 3.11048 0.13777
| 18> C -1.31759 3.04329 0.06144
| 19> C -1.2388 -3.1226 0.1259
| 20> C 1.27376 -3.12734 0.09028
| 21> H -0.28805 1.37742 -2.08482
| 22> H -0.28661 -1.37457 -2.09672
| 23> H -0.09638 2.39374 1.61671
| 24> H 0.05015 -2.39962 1.69351
| 25> H 1.64502 2.81766 -0.88058
| 26> H -1.30309 3.36338 -0.98896
| 27> H -1.0934 -3.29791 -1.00461
| 28> H 1.34403 -2.82911 -0.95371
| 29> H 1.3955 4.21235 0.23823
| 30> H -1.50342 3.92061 0.69538
| 31> H -1.15039 -4.1427 0.5915
| 32> H 1.27784 -4.20124 0.28342
| 33> H 2.05419 2.71199 0.87105
| 34> H -2.13505 2.33128 0.23591
| 35> H -2.26183 -2.60218 0.30707
| 36> H 2.1138 -2.6579 0.60869
| 37> **                         ****END OF INPUT****
 Total Charge           Charge          ....    0
 Multiplicity           Mult            ....    1
 Number of Electrons    NEL             ....   84
Dispersion correction           -0.004145123
FINAL SINGLE POINT ENERGY      -461.588646566065
Dispersion correction            ... Starting D4
Dispersion correction           -0.004112675
FINAL SINGLE POINT ENERGY      -461.609492239236
Dispersion correction            ... Starting D4
Dispersion correction           -0.004103146
FINAL SINGLE POINT ENERGY      -461.616179262202
Dispersion correction            ... Starting D4
FINAL SINGLE POINT ENERGY      -461.618254319805
FINAL SINGLE POINT ENERGY      -461.619094128420
FINAL SINGLE POINT ENERGY      -461.619501109640
FINAL SINGLE POINT ENERGY      -461.619722922199
FINAL SINGLE POINT ENERGY      -461.619832358820
FINAL SINGLE POINT ENERGY      -461.619862964114
FINAL SINGLE POINT ENERGY      -461.619878175395
FINAL SINGLE POINT ENERGY      -461.619895561329
FINAL SINGLE POINT ENERGY      -461.619911727888
FINAL SINGLE POINT ENERGY      -461.619926543942
Dispersion correction           -0.004101956
FINAL SINGLE POINT ENERGY      -461.619934509848
Dispersion correction            ... Starting D4
Dispersion correction           -0.004101936
FINAL SINGLE POINT ENERGY      -461.619937579077
Dispersion correction            ... Starting D4
                    ***********************HURRAY********************

CARTESIAN COORDINATES (ANGSTROEM)
---------------------------------
  C     -0.031856    2.430792    0.552923
  C      0.007244   -2.460681    0.536153
  N     -0.013691    1.047882    0.081925
  N      0.000944   -1.074447    0.074599
  C      0.000450    0.668712   -1.251233
  C      0.009939   -0.685937   -1.255920
  C     -0.013998   -0.016311    0.929595
  C      1.231126    3.173654    0.129513
  C     -1.306837    3.143847    0.114132
  C     -1.252515   -3.195275    0.089355
  C      1.285527   -3.175903    0.110690
  H      0.002146    1.375811   -2.078920
  H      0.022571   -1.387011   -2.088624
  H     -0.037118    2.331941    1.648525
  H     -0.002903   -2.369434    1.632374
  H      1.288997    3.279132   -0.966466
  H     -1.350343    3.252534   -0.982254
  H     -1.296636   -3.289541   -1.008277
  H      1.345183   -3.276380   -0.985705
  H      1.246046    4.184742    0.563893
  H     -1.353509    4.152378    0.552220
  H     -1.276071   -4.210506    0.513548
  H      1.320839   -4.188287    0.540961
  H      2.128607    2.636965    0.471018
  H     -2.195582    2.582927    0.439132
  H     -2.152579   -2.658818    0.424350
  H      2.171831   -2.622277    0.454234

 Multiplicity           Mult            ....    1
 Number of Electrons    NEL             ....   84
 Basis Dimension        Dim             ....  234

ORBITAL ENERGIES
----------------

  NO   OCC          E(Eh)            E(eV)
   0   2.0000     -14.438165      -392.8824
   1   2.0000     -14.438154      -392.8822
   2   2.0000     -10.306703      -280.4597
   3   2.0000     -10.306668      -280.4587
   4   2.0000     -10.293031      -280.0876
   5   2.0000     -10.292444      -280.0716
   6   2.0000     -10.267271      -279.3866
   7   2.0000     -10.267232      -279.3856
   8   2.0000     -10.267215      -279.3851
   9   2.0000     -10.267168      -279.3839
  10   2.0000     -10.262482      -279.2563
  11   2.0000      -1.140152       -31.0251
  12   2.0000      -1.035969       -28.1902
  13   2.0000      -0.934512       -25.4294
  14   2.0000      -0.882655       -24.0183
  15   2.0000      -0.861500       -23.4426
  16   2.0000      -0.811892       -22.0927
  17   2.0000      -0.811546       -22.0833
  18   2.0000      -0.758292       -20.6342
  19   2.0000      -0.744617       -20.2621
  20   2.0000      -0.672626       -18.3031
  21   2.0000      -0.659863       -17.9558
  22   2.0000      -0.622464       -16.9381
  23   2.0000      -0.586068       -15.9477
  24   2.0000      -0.572477       -15.5779
  25   2.0000      -0.559966       -15.2375
  26   2.0000      -0.558881       -15.2079
  27   2.0000      -0.537365       -14.6224
  28   2.0000      -0.533520       -14.5178
  29   2.0000      -0.528491       -14.3810
  30   2.0000      -0.503383       -13.6977
  31   2.0000      -0.496920       -13.5219
  32   2.0000      -0.486976       -13.2513
  33   2.0000      -0.485235       -13.2039
  34   2.0000      -0.466745       -12.7008
  35   2.0000      -0.458450       -12.4751
  36   2.0000      -0.447669       -12.1817
  37   2.0000      -0.442313       -12.0360
  38   2.0000      -0.433722       -11.8022
  39   2.0000      -0.365515        -9.9462
  40   2.0000      -0.318106        -8.6561
  41   2.0000      -0.302906        -8.2425
  42   0.0000       0.125235         3.4078
  43   0.0000       0.141286         3.8446
  44   0.0000       0.143255         3.8982
  45   0.0000       0.144932         3.9438
  46   0.0000       0.171915         4.6780

MULLIKEN ATOMIC CHARGES
-----------------------
   0 C :    0.002951
   1 C :    0.002967
   2 N :   -0.221332
   3 N :   -0.221252
   4 C :    0.033385
   5 C :    0.033375
   6 C :   -0.124451
   7 C :   -0.001094
   8 C :   -0.000852
   9 C :   -0.000863
  10 C :   -0.001116
  11 H :    0.028259
  12 H :    0.028277
  13 H :    0.036573
  14 H :    0.036590
  15 H :    0.016053
  16 H :    0.015916
  17 H :    0.016037
  18 H :    0.015982
  19 H :    0.032063
  20 H :    0.032142
  21 H :    0.032014
  22 H :    0.032090
  23 H :    0.044086
  24 H :    0.044039
  25 H :    0.044054
  26 H :    0.044107
Sum of atomic charges:   -0.0000000

LOEWDIN ATOMIC CHARGES
----------------------
   0 C :    0.026868
   1 C :    0.026894
   2 N :    0.028650
   3 N :    0.028676
   4 C :   -0.036549
   5 C :   -0.036568
   6 C :   -0.252617
   7 C :   -0.060267
   8 C :   -0.060263
   9 C :   -0.060238
  10 C :   -0.060290
  11 H :    0.025368
  12 H :    0.025367
  13 H :    0.033760
  14 H :    0.033761
  15 H :    0.021285
  16 H :    0.021269
  17 H :    0.021308
  18 H :    0.021281
  19 H :    0.030269
  20 H :    0.030226
  21 H :    0.030219
  22 H :    0.030235
  23 H :    0.032842
  24 H :    0.032837
  25 H :    0.032842
  26 H :    0.032835

  Mayer bond orders larger than 0.100000
B(  0-C ,  2-N ) :   0.9214 B(  0-C ,  7-C ) :   1.0705 B(  0-C ,  8-C ) :   1.0707
B(  0-C , 13-H ) :   0.9298 B(  1-C ,  3-N ) :   0.9214 B(  1-C ,  9-C ) :   1.0706
B(  1-C , 10-C ) :   1.0706 B(  1-C , 14-H ) :   0.9298 B(  2-N ,  4-C ) :   1.1170
B(  2-N ,  6-C ) :   1.2187 B(  3-N ,  5-C ) :   1.1169 B(  3-N ,  6-C ) :   1.2188
B(  4-C ,  5-C ) :   1.6447 B(  4-C , 11-H ) :   0.9863 B(  5-C , 12-H ) :   0.9863
B(  7-C , 15-H ) :   0.9637 B(  7-C , 19-H ) :   0.9726 B(  7-C , 23-H ) :   0.9690
B(  8-C , 16-H ) :   0.9636 B(  8-C , 20-H ) :   0.9726 B(  8-C , 24-H ) :   0.9690
B(  9-C , 17-H ) :   0.9636 B(  9-C , 21-H ) :   0.9726 B(  9-C , 25-H ) :   0.9690
B( 10-C , 18-H ) :   0.9637 B( 10-C , 22-H ) :   0.9726 B( 10-C , 26-H ) :   0.9691

Dispersion correction           -0.004101888
FINAL SINGLE POINT ENERGY      -461.619938653846

DIPOLE MOMENT
-------------
                                X             Y             Z
Electronic contribution:      0.02116       0.00030       0.00220
Nuclear contribution   :     -0.01458       0.00272      -0.89206
                        -----------------------------------------
Total Dipole Moment    :      0.00658       0.00303      -0.88986
                        -----------------------------------------
Magnitude (a.u.)       :      0.88989
Magnitude (Debye)      :      2.26192

Dispersion correction in the Hessian             ... Starting D4

VIBRATIONAL FREQUENCIES
-----------------------

Scaling factor for frequencies =  1.000000000  (already applied!)

   0:         0.00 cm**-1
   1:         0.00 cm**-1
   2:         0.00 cm**-1
   3:         0.00 cm**-1
   4:         0.00 cm**-1
   5:         0.00 cm**-1
   6:        27.50 cm**-1
   7:        35.06 cm**-1
   8:       118.18 cm**-1
   9:       150.52 cm**-1
  10:       160.34 cm**-1
  11:       230.70 cm**-1
  12:       232.14 cm**-1
  13:       251.42 cm**-1
  14:       263.24 cm**-1
  15:       273.00 cm**-1
  16:       300.64 cm**-1
  17:       354.14 cm**-1
  18:       403.60 cm**-1
  19:       444.85 cm**-1
  20:       459.61 cm**-1
  21:       573.76 cm**-1
  22:       636.22 cm**-1
  23:       667.72 cm**-1
  24:       680.89 cm**-1
  25:       691.89 cm**-1
  26:       735.66 cm**-1
  27:       865.06 cm**-1
  28:       908.71 cm**-1
  29:       913.16 cm**-1
  30:       934.71 cm**-1
  31:       935.11 cm**-1
  32:       955.98 cm**-1
  33:       956.19 cm**-1
  34:      1021.76 cm**-1
  35:      1024.91 cm**-1
  36:      1073.34 cm**-1
  37:      1091.43 cm**-1
  38:      1111.10 cm**-1
  39:      1173.26 cm**-1
  40:      1173.32 cm**-1
  41:      1189.82 cm**-1
  42:      1194.38 cm**-1
  43:      1254.43 cm**-1
  44:      1317.36 cm**-1
  45:      1326.23 cm**-1
  46:      1355.19 cm**-1
  47:      1355.59 cm**-1
  48:      1402.99 cm**-1
  49:      1406.51 cm**-1
  50:      1407.24 cm**-1
  51:      1408.13 cm**-1
  52:      1418.74 cm**-1
  53:      1426.32 cm**-1
  54:      1447.28 cm**-1
  55:      1461.05 cm**-1
  56:      1461.76 cm**-1
  57:      1466.94 cm**-1
  58:      1467.05 cm**-1
  59:      1473.87 cm**-1
  60:      1476.79 cm**-1
  61:      1479.39 cm**-1
  62:      1491.70 cm**-1
  63:      1496.01 cm**-1
  64:      1660.24 cm**-1
  65:      3063.71 cm**-1
  66:      3063.78 cm**-1
  67:      3066.24 cm**-1
  68:      3066.46 cm**-1
  69:      3132.62 cm**-1
  70:      3132.93 cm**-1
  71:      3158.82 cm**-1
  72:      3158.85 cm**-1
  73:      3165.48 cm**-1
  74:      3165.75 cm**-1
  75:      3178.45 cm**-1
  76:      3178.54 cm**-1
  77:      3180.05 cm**-1
  78:      3180.18 cm**-1
  79:      3280.21 cm**-1
  80:      3302.46 cm**-1

IR SPECTRUM
-----------

 Mode   freq       eps      Int      T**2         TX        TY        TZ
       cm**-1   L/(mol*cm) km/mol    a.u.
----------------------------------------------------------------------------
  6:     27.50   0.000007    0.04  0.000084  ( 0.009141 -0.000051  0.000103)
  7:     35.06   0.000000    0.00  0.000000  ( 0.000175 -0.000059  0.000064)
  8:    118.18   0.001827    9.23  0.004825  (-0.069457 -0.000432 -0.000550)
  9:    150.52   0.000001    0.01  0.000002  (-0.001213 -0.000007 -0.000875)
 10:    160.34   0.000239    1.21  0.000466  ( 0.000096  0.000147 -0.021585)
 11:    230.70   0.000011    0.06  0.000015  (-0.003925 -0.000157  0.000068)
 12:    232.14   0.000015    0.08  0.000020  (-0.004368 -0.000985 -0.000288)
 13:    251.42   0.000078    0.39  0.000097  (-0.000186 -0.009841  0.000105)
 14:    263.24   0.000004    0.02  0.000005  ( 0.000228  0.001369  0.001813)
 15:    273.00   0.000002    0.01  0.000002  ( 0.000274  0.001161 -0.000540)
 16:    300.64   0.000563    2.84  0.000584  ( 0.000922 -0.024149 -0.000117)
 17:    354.14   0.000402    2.03  0.000354  (-0.000494 -0.018806 -0.000064)
 18:    403.60   0.002676   13.53  0.002069  ( 0.045487  0.000420  0.000373)
 19:    444.85   0.000000    0.00  0.000000  (-0.000072 -0.000112 -0.000013)
 20:    459.61   0.000002    0.01  0.000001  ( 0.000032  0.000069 -0.001052)
 21:    573.76   0.002526   12.76  0.001374  (-0.000396  0.037062  0.000117)
 22:    636.22   0.000091    0.46  0.000045  ( 0.000226  0.000014 -0.006680)
 23:    667.72   0.001110    5.61  0.000519  (-0.022766 -0.000544 -0.000239)
 24:    680.89   0.000000    0.00  0.000000  ( 0.000138 -0.000040 -0.000018)
 25:    691.89   0.001970    9.96  0.000889  (-0.000193  0.029807  0.000098)
 26:    735.66   0.007134   36.05  0.003026  (-0.055007 -0.000241 -0.000582)
 27:    865.06   0.000000    0.00  0.000000  ( 0.000248 -0.000062  0.000153)
 28:    908.71   0.001606    8.12  0.000552  ( 0.000100 -0.023486  0.000155)
 29:    913.16   0.000242    1.22  0.000083  ( 0.000051  0.000639  0.009073)
 30:    934.71   0.000099    0.50  0.000033  (-0.005741 -0.000057 -0.000061)
 31:    935.11   0.000170    0.86  0.000057  (-0.007530  0.000219  0.000073)
 32:    955.98   0.000093    0.47  0.000030  (-0.005494  0.000418  0.000101)
 33:    956.19   0.000016    0.08  0.000005  (-0.002303  0.000033 -0.000183)
 34:   1021.76   0.002682   13.56  0.000819  (-0.000140  0.028622  0.000062)
 35:   1024.91   0.000030    0.15  0.000009  (-0.000050 -0.000330 -0.002996)
 36:   1073.34   0.000274    1.38  0.000080  (-0.000161  0.008921 -0.000126)
 37:   1091.43   0.001893    9.57  0.000541  (-0.000329 -0.000015  0.023264)
 38:   1111.10   0.001871    9.46  0.000526  (-0.000321 -0.000070  0.022923)
 39:   1173.26   0.002135   10.79  0.000568  ( 0.023826  0.000282  0.000205)
 40:   1173.32   0.000171    0.87  0.000046  ( 0.006748 -0.000026  0.000060)
 41:   1189.82   0.000015    0.08  0.000004  ( 0.000053 -0.000071  0.001990)
 42:   1194.38   0.000011    0.05  0.000003  ( 0.000089 -0.001659 -0.000050)
 43:   1254.43   0.019553   98.82  0.004864  ( 0.000531 -0.069742 -0.000226)
 44:   1317.36   0.003537   17.88  0.000838  ( 0.000272 -0.028946 -0.000106)
 45:   1326.23   0.000134    0.68  0.000032  ( 0.000093  0.000169 -0.005619)
 46:   1355.19   0.000000    0.00  0.000000  (-0.000040 -0.000053 -0.000028)
 47:   1355.59   0.000053    0.27  0.000012  ( 0.003503 -0.000123  0.000018)
 48:   1402.99   0.000104    0.53  0.000023  ( 0.003118  0.003662  0.000058)
 49:   1406.51   0.000019    0.10  0.000004  ( 0.000865 -0.000159  0.001885)
 50:   1407.24   0.007776   39.30  0.001724  (-0.041508 -0.000637  0.001040)
 51:   1408.13   0.000563    2.84  0.000125  ( 0.007164  0.000181  0.008564)
 52:   1418.74   0.001482    7.49  0.000326  ( 0.000407  0.000203 -0.018048)
 53:   1426.32   0.011146   56.33  0.002439  (-0.000882  0.049374  0.000123)
 54:   1447.28   0.002816   14.23  0.000607  (-0.000223 -0.000086  0.024641)
 55:   1461.05   0.000005    0.02  0.000001  ( 0.000757 -0.000335 -0.000601)
 56:   1461.76   0.000017    0.08  0.000004  ( 0.001476  0.000477  0.001079)
 57:   1466.94   0.000129    0.65  0.000027  ( 0.005168  0.000558 -0.000645)
 58:   1467.05   0.000118    0.60  0.000025  (-0.004905 -0.000563 -0.000882)
 59:   1473.87   0.003176   16.05  0.000672  (-0.000838  0.025823 -0.002214)
 60:   1476.79   0.003793   19.17  0.000802  ( 0.000350 -0.001991 -0.028239)
 61:   1479.39   0.007376   37.28  0.001556  (-0.000260  0.039444  0.000329)
 62:   1491.70   0.001229    6.21  0.000257  (-0.000214  0.001446  0.015966)
 63:   1496.01   0.011098   56.08  0.002315  ( 0.000280 -0.048112  0.000392)
 64:   1660.24   0.000030    0.15  0.000006  (-0.000032 -0.000015  0.002392)
 65:   3063.71   0.001234    6.24  0.000126  (-0.011163  0.000638 -0.000845)
 66:   3063.78   0.004100   20.72  0.000418  (-0.020419  0.000816  0.000093)
 67:   3066.24   0.004364   22.06  0.000444  (-0.001178 -0.020998  0.001369)
 68:   3066.46   0.002084   10.53  0.000212  (-0.000185  0.002085  0.014413)
 69:   3132.62   0.000001    0.00  0.000000  (-0.000035 -0.000274  0.000091)
 70:   3132.93   0.000066    0.33  0.000007  (-0.000016 -0.002568 -0.000012)
 71:   3158.82   0.000374    1.89  0.000037  (-0.006032  0.000256  0.000735)
 72:   3158.85   0.000379    1.91  0.000037  (-0.006050  0.000466 -0.000782)
 73:   3165.48   0.002762   13.96  0.000272  ( 0.000144  0.016218  0.003039)
 74:   3165.75   0.012119   61.24  0.001195  (-0.000397 -0.001659  0.034521)
 75:   3178.45   0.000301    1.52  0.000030  ( 0.005400 -0.000643  0.000065)
 76:   3178.54   0.002368   11.97  0.000232  ( 0.015213 -0.000963  0.000351)
 77:   3180.05   0.008266   41.77  0.000811  (-0.000402 -0.028478 -0.000184)
 78:   3180.18   0.000304    1.54  0.000030  (-0.000065  0.005455  0.000340)
 79:   3280.21   0.000115    0.58  0.000011  (-0.000042  0.003306  0.000021)
 80:   3302.46   0.000064    0.32  0.000006  (-0.000019 -0.000015  0.002462)

--------------------------
THERMOCHEMISTRY AT 298.15K
--------------------------

Temperature         ... 298.15 K
Pressure            ... 1.00 atm
Total Mass          ... 152.24 AMU

Throughout the following assumptions are being made:
  (1) The electronic state is orbitally nondegenerate
  (2) There are no thermally accessible electronically excited states
  (3) Hindered rotations indicated by low frequency modes are not
      treated as such but are treated as vibrations and this may
      cause some error
  (4) All equations used are the standard statistical mechanics
      equations for an ideal gas
  (5) All vibrations are strictly harmonic

freq.      27.50  E(vib)   ...       0.55
freq.      35.06  E(vib)   ...       0.54
freq.     118.18  E(vib)   ...       0.44
freq.     150.52  E(vib)   ...       0.40
freq.     160.34  E(vib)   ...       0.39
freq.     230.70  E(vib)   ...       0.32
freq.     232.14  E(vib)   ...       0.32
freq.     251.42  E(vib)   ...       0.30
freq.     263.24  E(vib)   ...       0.29
freq.     273.00  E(vib)   ...       0.29
freq.     300.64  E(vib)   ...       0.26
freq.     354.14  E(vib)   ...       0.22
freq.     403.60  E(vib)   ...       0.19
freq.     444.85  E(vib)   ...       0.17
freq.     459.61  E(vib)   ...       0.16
freq.     573.76  E(vib)   ...       0.11
freq.     636.22  E(vib)   ...       0.09
freq.     667.72  E(vib)   ...       0.08
freq.     680.89  E(vib)   ...       0.08
freq.     691.89  E(vib)   ...       0.07
freq.     735.66  E(vib)   ...       0.06
freq.     865.06  E(vib)   ...       0.04
freq.     908.71  E(vib)   ...       0.03
freq.     913.16  E(vib)   ...       0.03
freq.     934.71  E(vib)   ...       0.03
freq.     935.11  E(vib)   ...       0.03
freq.     955.98  E(vib)   ...       0.03
freq.     956.19  E(vib)   ...       0.03
freq.    1021.76  E(vib)   ...       0.02
freq.    1024.91  E(vib)   ...       0.02
freq.    1073.34  E(vib)   ...       0.02
freq.    1091.43  E(vib)   ...       0.02
freq.    1111.10  E(vib)   ...       0.01
freq.    1173.26  E(vib)   ...       0.01
freq.    1173.32  E(vib)   ...       0.01
freq.    1189.82  E(vib)   ...       0.01
freq.    1194.38  E(vib)   ...       0.01
freq.    1254.43  E(vib)   ...       0.01
freq.    1317.36  E(vib)   ...       0.01
freq.    1326.23  E(vib)   ...       0.01
freq.    1355.19  E(vib)   ...       0.01
freq.    1355.59  E(vib)   ...       0.01
freq.    1402.99  E(vib)   ...       0.00
freq.    1406.51  E(vib)   ...       0.00
freq.    1407.24  E(vib)   ...       0.00
freq.    1408.13  E(vib)   ...       0.00
freq.    1418.74  E(vib)   ...       0.00
freq.    1426.32  E(vib)   ...       0.00
freq.    1447.28  E(vib)   ...       0.00
freq.    1461.05  E(vib)   ...       0.00
freq.    1461.76  E(vib)   ...       0.00
freq.    1466.94  E(vib)   ...       0.00
freq.    1467.05  E(vib)   ...       0.00
freq.    1473.87  E(vib)   ...       0.00
freq.    1476.79  E(vib)   ...       0.00
freq.    1479.39  E(vib)   ...       0.00
freq.    1491.70  E(vib)   ...       0.00
freq.    1496.01  E(vib)   ...       0.00
freq.    1660.24  E(vib)   ...       0.00
freq.    3063.71  E(vib)   ...       0.00
freq.    3063.78  E(vib)   ...       0.00
freq.    3066.24  E(vib)   ...       0.00
freq.    3066.46  E(vib)   ...       0.00
freq.    3132.62  E(vib)   ...       0.00
freq.    3132.93  E(vib)   ...       0.00
freq.    3158.82  E(vib)   ...       0.00
freq.    3158.85  E(vib)   ...       0.00
freq.    3165.48  E(vib)   ...       0.00
freq.    3165.75  E(vib)   ...       0.00
freq.    3178.45  E(vib)   ...       0.00
freq.    3178.54  E(vib)   ...       0.00
freq.    3180.05  E(vib)   ...       0.00
freq.    3180.18  E(vib)   ...       0.00
freq.    3280.21  E(vib)   ...       0.00
freq.    3302.46  E(vib)   ...       0.00

------------
INNER ENERGY
------------

The inner energy is: U= E(el) + E(ZPE) + E(vib) + E(rot) + E(trans)
    E(el)   - is the total energy from the electronic structure calculation
              = E(kin-el) + E(nuc-el) + E(el-el) + E(nuc-nuc)
    E(ZPE)  - the the zero temperature vibrational energy from the frequency calculation
    E(vib)  - the the finite temperature correction to E(ZPE) due to population
              of excited vibrational states
    E(rot)  - is the rotational thermal energy
    E(trans)- is the translational thermal energy

Summary of contributions to the inner energy U:
Electronic energy                ...   -461.61993865 Eh
Zero point energy                ...      0.24182445 Eh     151.75 kcal/mol
Thermal vibrational correction   ...      0.00925195 Eh       5.81 kcal/mol
Thermal rotational correction    ...      0.00141627 Eh       0.89 kcal/mol
Thermal translational correction ...      0.00141627 Eh       0.89 kcal/mol
-----------------------------------------------------------------------
Total thermal energy                   -461.36602971 Eh

Summary of corrections to the electronic energy:
(perhaps to be used in another calculation)
Total thermal correction                  0.01208450 Eh       7.58 kcal/mol
Non-thermal (ZPE) correction              0.24182445 Eh     151.75 kcal/mol
-----------------------------------------------------------------------
Total correction                          0.25390895 Eh     159.33 kcal/mol

--------
ENTHALPY
--------

The enthalpy is H = U + kB*T
                kB is Boltzmann's constant
Total free energy                 ...   -461.36602971 Eh
Thermal Enthalpy correction       ...      0.00094421 Eh       0.59 kcal/mol
-----------------------------------------------------------------------
Total Enthalpy                    ...   -461.36508550 Eh

Note: Only C1 symmetry has been detected, increase convergence thresholds
      if your molecule has a higher symmetry. Symmetry factor of 1.0 is
      used for the rotational entropy correction.

Note: Rotational entropy computed according to Herzberg
Infrared and Raman Spectra, Chapter V,1, Van Nostrand Reinhold, 1945
Point Group:  C1, Symmetry Number:   1
Rotational constants in cm-1:     0.090547     0.018679     0.018002

Vibrational entropy computed according to the QRRHO of S. Grimme
Chem.Eur.J. 2012 18 9955

-------
ENTROPY
-------

The entropy contributions are T*S = T*(S(el)+S(vib)+S(rot)+S(trans))
     S(el)   - electronic entropy
     S(vib)  - vibrational entropy
     S(rot)  - rotational entropy
     S(trans)- translational entropy
The entropies will be listed as multiplied by the temperature to get
units of energy

                             ****ORCA TERMINATED NORMALLY****
TOTAL RUN TIME: 0 days 0 hours 14 minutes 36 seconds 519 msec
