                         Program Version 5.0.4 -  RELEASE  -
|  1> ! Opt FREQ wB97X D4 Def2-SVP SlowConv TightSCF DEFGRID2 Def2/J RIJCOSX
|  2> %MAXCORE 4000
|  3> %scf MaxIter 20000 end
|  4> %geom
|  5> MaxIter 500
|  6> end
|  7> %PAL NPROCS 8 END
|  8>
|  9> * xyz 0 1
| 10> C 0.8281 0.43674 -1.49311
| 11> C 0.66192 -0.96469 -1.31578
| 12> N 0.21924 1.01711 -0.36272
| 13> N 0.00515 -1.09153 -0.12408
| 14> C -0.25823 0.10056 0.50373
| 15> H 1.31392 1.07622 -2.31678
| 16> H 1.12066 -1.74754 -1.91035
| 17> C 0.21983 2.4551 -0.05891
| 18> C -0.43584 -2.38323 0.47465
| 19> C -1.07735 2.9985 -0.75448
| 20> C -1.55142 -2.91243 -0.44138
| 21> C 0.73574 -3.35716 0.51886
| 22> C 1.49052 3.13579 -0.57693
| 23> H -0.92964 2.93098 -1.83951
| 24> H -1.13021 -3.02441 -1.43148
| 25> H 1.43612 -3.33274 -0.3172
| 26> H 1.48866 3.15254 -1.64215
| 27> H -1.97889 2.4153 -0.46223
| 28> H -2.34798 -2.17626 -0.58334
| 29> H 1.27521 -3.18732 1.44058
| 30> H 2.39483 2.7247 -0.16371
| 31> H -1.25584 4.07601 -0.60843
| 32> H -2.02094 -3.84136 -0.09667
| 33> H 0.35077 -4.39365 0.54044
| 34> H 1.43773 4.14799 -0.2343
| 35> C 0.19379 2.7236 1.45881
| 36> C -0.93637 -2.17751 1.85853
| 37> H 0.14217 3.78875 1.48392
| 38> H -1.02497 -3.18149 2.35385
| 39> H -0.68113 2.24707 1.90515
| 40> H -1.84633 -1.59414 1.84261
| 41> H -0.20443 -1.64842 2.48706
| 42> H 1.00397 2.37026 2.07528
| 43> **                         ****END OF INPUT****
 Total Charge           Charge          ....    0
 Multiplicity           Mult            ....    1
 Number of Electrons    NEL             ....  100
Dispersion correction           -0.005744572
FINAL SINGLE POINT ENERGY      -540.143657379089
Dispersion correction            ... Starting D4
Dispersion correction           -0.005739825
FINAL SINGLE POINT ENERGY      -540.165260696540
Dispersion correction            ... Starting D4
Dispersion correction           -0.005737705
FINAL SINGLE POINT ENERGY      -540.171642080020
Dispersion correction            ... Starting D4
FINAL SINGLE POINT ENERGY      -540.173784845687
FINAL SINGLE POINT ENERGY      -540.174724310035
FINAL SINGLE POINT ENERGY      -540.175261273288
FINAL SINGLE POINT ENERGY      -540.175598924334
FINAL SINGLE POINT ENERGY      -540.175696864279
FINAL SINGLE POINT ENERGY      -540.175732952862
FINAL SINGLE POINT ENERGY      -540.175745886440
FINAL SINGLE POINT ENERGY      -540.176176741855
FINAL SINGLE POINT ENERGY      -540.176135000218
FINAL SINGLE POINT ENERGY      -540.176132063206
FINAL SINGLE POINT ENERGY      -540.176098935280
FINAL SINGLE POINT ENERGY      -540.176129771559
FINAL SINGLE POINT ENERGY      -540.176126143544
FINAL SINGLE POINT ENERGY      -540.176099627113
Dispersion correction           -0.005752114
FINAL SINGLE POINT ENERGY      -540.176106414585
Dispersion correction            ... Starting D4
Dispersion correction           -0.005752071
FINAL SINGLE POINT ENERGY      -540.176100178153
Dispersion correction            ... Starting D4
                    ***********************HURRAY********************

CARTESIAN COORDINATES (ANGSTROEM)
---------------------------------
  C      0.967851    0.417539   -1.373226
  C      0.708926   -0.906792   -1.267208
  N      0.305668    1.027149   -0.318418
  N     -0.106752   -1.056208   -0.153842
  C     -0.361003    0.129489    0.455482
  H      1.556805    0.949880   -2.114531
  H      1.035144   -1.731554   -1.896196
  C      0.302613    2.474840    0.001738
  C     -0.552441   -2.368540    0.364063
  C     -1.148169    2.961045    0.027174
  C     -1.049162   -3.230712   -0.800903
  C      0.635548   -3.041944    1.059457
  C      1.088134    3.248746   -1.056350
  H     -1.617974    2.830683   -0.960561
  H     -0.245402   -3.476975   -1.511619
  H      1.475431   -3.186466    0.361355
  H      0.652196    3.124883   -2.060023
  H     -1.725019    2.380776    0.760520
  H     -1.852610   -2.716002   -1.350093
  H      0.986392   -2.418766    1.896050
  H      2.145409    2.942341   -1.088073
  H     -1.189756    4.028640    0.294416
  H     -1.448599   -4.180819   -0.415051
  H      0.344649   -4.027586    1.454958
  H      1.061018    4.320654   -0.811176
  C      0.952347    2.664471    1.374961
  C     -1.690785   -2.162405    1.360955
  H      0.951080    3.728677    1.658633
  H     -2.023887   -3.143434    1.733909
  H      0.400460    2.088800    2.131330
  H     -2.542178   -1.655365    0.883952
  H     -1.371571   -1.539280    2.205582
  H      1.994397    2.307576    1.362664

 Multiplicity           Mult            ....    1
 Number of Electrons    NEL             ....  100
 Basis Dimension        Dim             ....  282

ORBITAL ENERGIES
----------------

  NO   OCC          E(Eh)            E(eV)
   0   2.0000     -14.438384      -392.8884
   1   2.0000     -14.437088      -392.8531
   2   2.0000     -10.314832      -280.6808
   3   2.0000     -10.314138      -280.6620
   4   2.0000     -10.290846      -280.0282
   5   2.0000     -10.288546      -279.9656
   6   2.0000     -10.270096      -279.4635
   7   2.0000     -10.267689      -279.3980
   8   2.0000     -10.263385      -279.2809
   9   2.0000     -10.259432      -279.1734
  10   2.0000     -10.255422      -279.0642
  11   2.0000     -10.254482      -279.0386
  12   2.0000     -10.252224      -278.9772
  13   2.0000      -1.138099       -30.9693
  14   2.0000      -1.036966       -28.2173
  15   2.0000      -0.949594       -25.8398
  16   2.0000      -0.897713       -24.4280
  17   2.0000      -0.862105       -23.4591
  18   2.0000      -0.814316       -22.1587
  19   2.0000      -0.810483       -22.0544
  20   2.0000      -0.802754       -21.8440
  21   2.0000      -0.801424       -21.8079
  22   2.0000      -0.752645       -20.4805
  23   2.0000      -0.715748       -19.4765
  24   2.0000      -0.652872       -17.7655
  25   2.0000      -0.648718       -17.6525
  26   2.0000      -0.616089       -16.7646
  27   2.0000      -0.579540       -15.7701
  28   2.0000      -0.576586       -15.6897
  29   2.0000      -0.558993       -15.2110
  30   2.0000      -0.555604       -15.1188
  31   2.0000      -0.550814       -14.9884
  32   2.0000      -0.532039       -14.4775
  33   2.0000      -0.526037       -14.3142
  34   2.0000      -0.521325       -14.1860
  35   2.0000      -0.501558       -13.6481
  36   2.0000      -0.495777       -13.4908
  37   2.0000      -0.483667       -13.1613
  38   2.0000      -0.479574       -13.0499
  39   2.0000      -0.470331       -12.7984
  40   2.0000      -0.465114       -12.6564
  41   2.0000      -0.464551       -12.6411
  42   2.0000      -0.460751       -12.5377
  43   2.0000      -0.445072       -12.1110
  44   2.0000      -0.436805       -11.8861
  45   2.0000      -0.433621       -11.7994
  46   2.0000      -0.429588       -11.6897
  47   2.0000      -0.363759        -9.8984
  48   2.0000      -0.314800        -8.5661
  49   2.0000      -0.298022        -8.1096
  50   0.0000       0.126828         3.4512
  51   0.0000       0.136730         3.7206
  52   0.0000       0.141270         3.8442
  53   0.0000       0.144231         3.9247
  54   0.0000       0.172853         4.7036

MULLIKEN ATOMIC CHARGES
-----------------------
   0 C :    0.037328
   1 C :    0.034400
   2 N :   -0.222719
   3 N :   -0.203806
   4 C :   -0.111262
   5 H :    0.024094
   6 H :    0.023081
   7 C :   -0.180006
   8 C :   -0.206900
   9 C :    0.052014
  10 C :    0.035784
  11 C :    0.061771
  12 C :    0.026745
  13 H :    0.019409
  14 H :    0.018174
  15 H :    0.016713
  16 H :    0.029941
  17 H :    0.049384
  18 H :    0.037433
  19 H :    0.036785
  20 H :    0.028866
  21 H :    0.015740
  22 H :    0.027653
  23 H :    0.022793
  24 H :    0.031516
  25 C :    0.054293
  26 C :    0.074088
  27 H :    0.016468
  28 H :    0.012954
  29 H :    0.047320
  30 H :    0.025549
  31 H :    0.045390
  32 H :    0.019007
Sum of atomic charges:    0.0000000

LOEWDIN ATOMIC CHARGES
----------------------
   0 C :   -0.035927
   1 C :   -0.042704
   2 N :    0.029954
   3 N :    0.034771
   4 C :   -0.244534
   5 H :    0.026889
   6 H :    0.024543
   7 C :    0.009492
   8 C :    0.006135
   9 C :   -0.047761
  10 C :   -0.050356
  11 C :   -0.048415
  12 C :   -0.053167
  13 H :    0.023950
  14 H :    0.019892
  15 H :    0.021684
  16 H :    0.025365
  17 H :    0.032986
  18 H :    0.030379
  19 H :    0.031033
  20 H :    0.024596
  21 H :    0.022663
  22 H :    0.029790
  23 H :    0.026347
  24 H :    0.032790
  25 C :   -0.047836
  26 C :   -0.043854
  27 H :    0.022929
  28 H :    0.021546
  29 H :    0.032606
  30 H :    0.028623
  31 H :    0.031951
  32 H :    0.023639

  Mayer bond orders larger than 0.100000
B(  0-C ,  1-C ) :   1.6264 B(  0-C ,  2-N ) :   1.1320 B(  0-C ,  5-H ) :   0.9863
B(  1-C ,  3-N ) :   1.1194 B(  1-C ,  6-H ) :   0.9829 B(  2-N ,  4-C ) :   1.2252
B(  2-N ,  7-C ) :   0.8710 B(  3-N ,  4-C ) :   1.2561 B(  3-N ,  8-C ) :   0.8814
B(  7-C ,  9-C ) :   1.0417 B(  7-C , 12-C ) :   1.0609 B(  7-C , 25-C ) :   1.0403
B(  8-C , 10-C ) :   1.0426 B(  8-C , 11-C ) :   1.0393 B(  8-C , 26-C ) :   1.0598
B(  9-C , 13-H ) :   0.9655 B(  9-C , 17-H ) :   0.9596 B(  9-C , 21-H ) :   0.9697
B( 10-C , 14-H ) :   0.9632 B( 10-C , 18-H ) :   0.9678 B( 10-C , 22-H ) :   0.9699
B( 11-C , 15-H ) :   0.9621 B( 11-C , 19-H ) :   0.9667 B( 11-C , 23-H ) :   0.9720
B( 12-C , 16-H ) :   0.9601 B( 12-C , 20-H ) :   0.9596 B( 12-C , 24-H ) :   0.9666
B( 25-C , 27-H ) :   0.9702 B( 25-C , 29-H ) :   0.9606 B( 25-C , 32-H ) :   0.9652
B( 26-C , 28-H ) :   0.9643 B( 26-C , 30-H ) :   0.9593 B( 26-C , 31-H ) :   0.9528

Dispersion correction           -0.005752037
FINAL SINGLE POINT ENERGY      -540.176102077670

DIPOLE MOMENT
-------------
                                X             Y             Z
Electronic contribution:      1.74048      -0.48109      -3.25005
Nuclear contribution   :     -1.28443       0.33206       2.61651
                        -----------------------------------------
Total Dipole Moment    :      0.45605      -0.14903      -0.63354
                        -----------------------------------------
Magnitude (a.u.)       :      0.79471
Magnitude (Debye)      :      2.01999

Dispersion correction in the Hessian             ... Starting D4

VIBRATIONAL FREQUENCIES
-----------------------

Scaling factor for frequencies =  1.000000000  (already applied!)

   0:         0.00 cm**-1
   1:         0.00 cm**-1
   2:         0.00 cm**-1
   3:         0.00 cm**-1
   4:         0.00 cm**-1
   5:         0.00 cm**-1
   6:        11.91 cm**-1
   7:        35.84 cm**-1
   8:        99.82 cm**-1
   9:       150.69 cm**-1
  10:       175.33 cm**-1
  11:       233.29 cm**-1
  12:       249.77 cm**-1
  13:       277.02 cm**-1
  14:       283.63 cm**-1
  15:       289.24 cm**-1
  16:       301.79 cm**-1
  17:       314.33 cm**-1
  18:       341.08 cm**-1
  19:       344.95 cm**-1
  20:       351.77 cm**-1
  21:       366.33 cm**-1
  22:       374.07 cm**-1
  23:       415.36 cm**-1
  24:       451.59 cm**-1
  25:       477.71 cm**-1
  26:       480.53 cm**-1
  27:       534.06 cm**-1
  28:       585.84 cm**-1
  29:       658.17 cm**-1
  30:       676.16 cm**-1
  31:       680.60 cm**-1
  32:       733.44 cm**-1
  33:       847.23 cm**-1
  34:       858.48 cm**-1
  35:       867.58 cm**-1
  36:       943.71 cm**-1
  37:       948.57 cm**-1
  38:       952.10 cm**-1
  39:       952.71 cm**-1
  40:       964.23 cm**-1
  41:       964.61 cm**-1
  42:      1010.03 cm**-1
  43:      1023.08 cm**-1
  44:      1046.38 cm**-1
  45:      1050.16 cm**-1
  46:      1051.17 cm**-1
  47:      1051.51 cm**-1
  48:      1105.35 cm**-1
  49:      1164.38 cm**-1
  50:      1226.87 cm**-1
  51:      1263.56 cm**-1
  52:      1274.32 cm**-1
  53:      1276.77 cm**-1
  54:      1277.85 cm**-1
  55:      1285.63 cm**-1
  56:      1359.21 cm**-1
  57:      1389.44 cm**-1
  58:      1393.19 cm**-1
  59:      1394.66 cm**-1
  60:      1395.64 cm**-1
  61:      1402.50 cm**-1
  62:      1415.63 cm**-1
  63:      1419.01 cm**-1
  64:      1423.43 cm**-1
  65:      1446.48 cm**-1
  66:      1447.45 cm**-1
  67:      1458.42 cm**-1
  68:      1459.40 cm**-1
  69:      1465.95 cm**-1
  70:      1467.20 cm**-1
  71:      1469.74 cm**-1
  72:      1476.83 cm**-1
  73:      1479.89 cm**-1
  74:      1483.54 cm**-1
  75:      1485.61 cm**-1
  76:      1497.72 cm**-1
  77:      1504.52 cm**-1
  78:      1660.77 cm**-1
  79:      3063.14 cm**-1
  80:      3064.37 cm**-1
  81:      3064.78 cm**-1
  82:      3069.62 cm**-1
  83:      3069.85 cm**-1
  84:      3078.60 cm**-1
  85:      3161.57 cm**-1
  86:      3162.94 cm**-1
  87:      3164.13 cm**-1
  88:      3165.64 cm**-1
  89:      3168.64 cm**-1
  90:      3172.41 cm**-1
  91:      3173.45 cm**-1
  92:      3173.48 cm**-1
  93:      3177.57 cm**-1
  94:      3187.38 cm**-1
  95:      3191.37 cm**-1
  96:      3204.98 cm**-1
  97:      3298.44 cm**-1
  98:      3323.15 cm**-1

IR SPECTRUM
-----------

 Mode   freq       eps      Int      T**2         TX        TY        TZ
       cm**-1   L/(mol*cm) km/mol    a.u.
----------------------------------------------------------------------------
  6:     11.91   0.000098    0.49  0.002566  (-0.040981  0.007433 -0.028835)
  7:     35.84   0.000154    0.78  0.001337  (-0.029210  0.003863 -0.021645)
  8:     99.82   0.001204    6.09  0.003765  ( 0.049927 -0.005575  0.035226)
  9:    150.69   0.000119    0.60  0.000247  ( 0.008665 -0.000043 -0.013093)
 10:    175.33   0.000032    0.16  0.000057  (-0.006230 -0.002753 -0.003195)
 11:    233.29   0.000044    0.22  0.000059  (-0.001961  0.006741 -0.003057)
 12:    249.77   0.000004    0.02  0.000005  ( 0.000392 -0.002102 -0.000648)
 13:    277.02   0.000329    1.66  0.000371  (-0.004959 -0.017714 -0.005676)
 14:    283.63   0.000008    0.04  0.000009  ( 0.001468 -0.001244  0.002362)
 15:    289.24   0.000163    0.82  0.000176  (-0.001820 -0.013013  0.001729)
 16:    301.79   0.000019    0.09  0.000019  ( 0.001269 -0.004090  0.000972)
 17:    314.33   0.000092    0.47  0.000091  ( 0.000361 -0.008293  0.004740)
 18:    341.08   0.000357    1.80  0.000327  ( 0.013268 -0.001486  0.012183)
 19:    344.95   0.000106    0.53  0.000096  (-0.001786 -0.002058  0.009397)
 20:    351.77   0.000413    2.09  0.000366  (-0.018408 -0.002456 -0.004597)
 21:    366.33   0.000071    0.36  0.000061  (-0.001218 -0.007442  0.001951)
 22:    374.07   0.000629    3.18  0.000525  ( 0.000759  0.022778 -0.002396)
 23:    415.36   0.000223    1.12  0.000167  (-0.004374 -0.012166  0.000308)
 24:    451.59   0.001123    5.67  0.000776  ( 0.022607 -0.002692  0.016052)
 25:    477.71   0.000240    1.21  0.000157  ( 0.008186 -0.000223 -0.009479)
 26:    480.53   0.000024    0.12  0.000016  ( 0.002969  0.002540  0.000793)
 27:    534.06   0.001350    6.82  0.000789  ( 0.005876  0.027404 -0.001817)
 28:    585.84   0.000211    1.07  0.000112  ( 0.004899 -0.000210 -0.009393)
 29:    658.17   0.003562   18.00  0.001689  ( 0.009087  0.040019 -0.002193)
 30:    676.16   0.000389    1.97  0.000180  ( 0.011379  0.001469  0.006936)
 31:    680.60   0.000872    4.41  0.000400  ( 0.015017 -0.006363  0.011578)
 32:    733.44   0.006934   35.04  0.002950  (-0.044389  0.006592 -0.030602)
 33:    847.23   0.000036    0.18  0.000013  ( 0.000942  0.002146 -0.002761)
 34:    858.48   0.000495    2.50  0.000180  ( 0.001658  0.013301 -0.000421)
 35:    867.58   0.000016    0.08  0.000006  (-0.000010  0.002192 -0.001052)
 36:    943.71   0.000168    0.85  0.000056  ( 0.006756  0.002766  0.001525)
 37:    948.57   0.000113    0.57  0.000037  (-0.004199  0.002221 -0.003807)
 38:    952.10   0.000292    1.47  0.000096  (-0.004391 -0.008132  0.003199)
 39:    952.71   0.000229    1.16  0.000075  (-0.005086 -0.000242  0.007017)
 40:    964.23   0.000047    0.24  0.000015  ( 0.001939  0.001297  0.003104)
 41:    964.61   0.000017    0.09  0.000006  ( 0.000824 -0.001920  0.001107)
 42:   1010.03   0.003012   15.22  0.000930  (-0.004797 -0.030069  0.001825)
 43:   1023.08   0.000271    1.37  0.000083  ( 0.005096  0.001086 -0.007453)
 44:   1046.38   0.000065    0.33  0.000019  ( 0.000326  0.004376  0.000144)
 45:   1050.16   0.000069    0.35  0.000021  ( 0.000540  0.000942 -0.004396)
 46:   1051.17   0.000082    0.41  0.000024  (-0.002925 -0.003160 -0.002399)
 47:   1051.51   0.000007    0.04  0.000002  (-0.000798 -0.000814 -0.000916)
 48:   1105.35   0.003361   16.99  0.000949  ( 0.017057 -0.005586 -0.025035)
 49:   1164.38   0.000846    4.27  0.000227  (-0.001348 -0.014832 -0.002193)
 50:   1226.87   0.000506    2.56  0.000129  ( 0.004030 -0.001333 -0.010520)
 51:   1263.56   0.002348   11.87  0.000580  ( 0.001141  0.023830  0.003270)
 52:   1274.32   0.004160   21.02  0.001019  ( 0.001817 -0.030218  0.010114)
 53:   1276.77   0.000963    4.87  0.000235  (-0.012996  0.001544 -0.008012)
 54:   1277.85   0.000964    4.87  0.000235  ( 0.012326 -0.001370  0.009037)
 55:   1285.63   0.028048  141.74  0.006808  (-0.017163 -0.080619  0.003748)
 56:   1359.21   0.000488    2.47  0.000112  ( 0.001825  0.010360  0.001182)
 57:   1389.44   0.000890    4.50  0.000200  (-0.006213  0.002852  0.012380)
 58:   1393.19   0.004093   20.68  0.000917  (-0.022083  0.004060 -0.020313)
 59:   1394.66   0.002152   10.87  0.000481  (-0.006422 -0.000346  0.020979)
 60:   1395.64   0.004376   22.12  0.000979  (-0.029467  0.003755 -0.009803)
 61:   1402.50   0.000887    4.48  0.000197  ( 0.007306  0.001083 -0.011953)
 62:   1415.63   0.006437   32.53  0.001419  (-0.006346  0.033057  0.016909)
 63:   1419.01   0.002632   13.30  0.000579  (-0.013115 -0.016849  0.011089)
 64:   1423.43   0.008641   43.67  0.001895  ( 0.023229  0.011317 -0.035027)
 65:   1446.48   0.000127    0.64  0.000028  (-0.001990  0.003983 -0.002771)
 66:   1447.45   0.000013    0.07  0.000003  (-0.001411 -0.000401 -0.000825)
 67:   1458.42   0.000411    2.08  0.000088  ( 0.000879  0.008738  0.003281)
 68:   1459.40   0.000158    0.80  0.000034  (-0.001083 -0.005029 -0.002690)
 69:   1465.95   0.010679   53.97  0.002273  ( 0.005641  0.047180  0.003951)
 70:   1467.20   0.001509    7.63  0.000321  ( 0.003580  0.017526  0.001042)
 71:   1469.74   0.002112   10.67  0.000448  ( 0.007080  0.019394 -0.004704)
 72:   1476.83   0.001620    8.19  0.000342  ( 0.002448 -0.016724  0.007528)
 73:   1479.89   0.000393    1.99  0.000083  ( 0.000441 -0.003618 -0.008346)
 74:   1483.54   0.000885    4.47  0.000186  (-0.011852 -0.000166 -0.006764)
 75:   1485.61   0.002658   13.43  0.000558  (-0.007932  0.022009  0.003327)
 76:   1497.72   0.000389    1.96  0.000081  (-0.005394 -0.005474  0.004684)
 77:   1504.52   0.000611    3.09  0.000127  (-0.000974  0.010838  0.002875)
 78:   1660.77   0.000142    0.72  0.000027  (-0.001558  0.002331  0.004329)
 79:   3063.14   0.003009   15.21  0.000307  ( 0.013941 -0.007493  0.007488)
 80:   3064.37   0.003868   19.55  0.000394  ( 0.011433  0.000781  0.016205)
 81:   3064.78   0.002883   14.57  0.000294  (-0.015361  0.005691  0.005016)
 82:   3069.62   0.003379   17.08  0.000344  (-0.001532  0.014270  0.011728)
 83:   3069.85   0.002776   14.03  0.000282  (-0.004622 -0.014467  0.007180)
 84:   3078.60   0.003486   17.62  0.000353  (-0.012714 -0.012505  0.005945)
 85:   3161.57   0.000325    1.64  0.000032  (-0.004627  0.000947 -0.003123)
 86:   3162.94   0.001227    6.20  0.000121  (-0.005369 -0.004751  0.008349)
 87:   3164.13   0.003738   18.89  0.000369  (-0.000938  0.015793  0.010878)
 88:   3165.64   0.004512   22.80  0.000445  ( 0.017901 -0.005816  0.009516)
 89:   3168.64   0.005245   26.50  0.000517  (-0.018975 -0.003405  0.012037)
 90:   3172.41   0.000268    1.35  0.000026  ( 0.004774  0.000953 -0.001625)
 91:   3173.45   0.007227   36.52  0.000711  (-0.003102  0.023304  0.012569)
 92:   3173.48   0.000975    4.92  0.000096  ( 0.005149  0.000964  0.008270)
 93:   3177.57   0.008942   45.19  0.000878  ( 0.000591 -0.027753  0.010375)
 94:   3187.38   0.000758    3.83  0.000074  ( 0.006756  0.005318  0.000553)
 95:   3191.37   0.001760    8.89  0.000172  (-0.002450 -0.011612  0.005588)
 96:   3204.98   0.001377    6.96  0.000134  ( 0.007600  0.006675  0.005634)
 97:   3298.44   0.000286    1.45  0.000027  ( 0.001407  0.004909 -0.001006)
 98:   3323.15   0.000128    0.64  0.000012  ( 0.001089 -0.002778 -0.001754)

--------------------------
THERMOCHEMISTRY AT 298.15K
--------------------------

Temperature         ... 298.15 K
Pressure            ... 1.00 atm
Total Mass          ... 180.29 AMU

Throughout the following assumptions are being made:
  (1) The electronic state is orbitally nondegenerate
  (2) There are no thermally accessible electronically excited states
  (3) Hindered rotations indicated by low frequency modes are not
      treated as such but are treated as vibrations and this may
      cause some error
  (4) All equations used are the standard statistical mechanics
      equations for an ideal gas
  (5) All vibrations are strictly harmonic

freq.      11.91  E(vib)   ...       0.58
freq.      35.84  E(vib)   ...       0.54
freq.      99.82  E(vib)   ...       0.46
freq.     150.69  E(vib)   ...       0.40
freq.     175.33  E(vib)   ...       0.38
freq.     233.29  E(vib)   ...       0.32
freq.     249.77  E(vib)   ...       0.31
freq.     277.02  E(vib)   ...       0.28
freq.     283.63  E(vib)   ...       0.28
freq.     289.24  E(vib)   ...       0.27
freq.     301.79  E(vib)   ...       0.26
freq.     314.33  E(vib)   ...       0.25
freq.     341.08  E(vib)   ...       0.23
freq.     344.95  E(vib)   ...       0.23
freq.     351.77  E(vib)   ...       0.23
freq.     366.33  E(vib)   ...       0.22
freq.     374.07  E(vib)   ...       0.21
freq.     415.36  E(vib)   ...       0.18
freq.     451.59  E(vib)   ...       0.16
freq.     477.71  E(vib)   ...       0.15
freq.     480.53  E(vib)   ...       0.15
freq.     534.06  E(vib)   ...       0.13
freq.     585.84  E(vib)   ...       0.11
freq.     658.17  E(vib)   ...       0.08
freq.     676.16  E(vib)   ...       0.08
freq.     680.60  E(vib)   ...       0.08
freq.     733.44  E(vib)   ...       0.06
freq.     847.23  E(vib)   ...       0.04
freq.     858.48  E(vib)   ...       0.04
freq.     867.58  E(vib)   ...       0.04
freq.     943.71  E(vib)   ...       0.03
freq.     948.57  E(vib)   ...       0.03
freq.     952.10  E(vib)   ...       0.03
freq.     952.71  E(vib)   ...       0.03
freq.     964.23  E(vib)   ...       0.03
freq.     964.61  E(vib)   ...       0.03
freq.    1010.03  E(vib)   ...       0.02
freq.    1023.08  E(vib)   ...       0.02
freq.    1046.38  E(vib)   ...       0.02
freq.    1050.16  E(vib)   ...       0.02
freq.    1051.17  E(vib)   ...       0.02
freq.    1051.51  E(vib)   ...       0.02
freq.    1105.35  E(vib)   ...       0.02
freq.    1164.38  E(vib)   ...       0.01
freq.    1226.87  E(vib)   ...       0.01
freq.    1263.56  E(vib)   ...       0.01
freq.    1274.32  E(vib)   ...       0.01
freq.    1276.77  E(vib)   ...       0.01
freq.    1277.85  E(vib)   ...       0.01
freq.    1285.63  E(vib)   ...       0.01
freq.    1359.21  E(vib)   ...       0.01
freq.    1389.44  E(vib)   ...       0.00
freq.    1393.19  E(vib)   ...       0.00
freq.    1394.66  E(vib)   ...       0.00
freq.    1395.64  E(vib)   ...       0.00
freq.    1402.50  E(vib)   ...       0.00
freq.    1415.63  E(vib)   ...       0.00
freq.    1419.01  E(vib)   ...       0.00
freq.    1423.43  E(vib)   ...       0.00
freq.    1446.48  E(vib)   ...       0.00
freq.    1447.45  E(vib)   ...       0.00
freq.    1458.42  E(vib)   ...       0.00
freq.    1459.40  E(vib)   ...       0.00
freq.    1465.95  E(vib)   ...       0.00
freq.    1467.20  E(vib)   ...       0.00
freq.    1469.74  E(vib)   ...       0.00
freq.    1476.83  E(vib)   ...       0.00
freq.    1479.89  E(vib)   ...       0.00
freq.    1483.54  E(vib)   ...       0.00
freq.    1485.61  E(vib)   ...       0.00
freq.    1497.72  E(vib)   ...       0.00
freq.    1504.52  E(vib)   ...       0.00
freq.    1660.77  E(vib)   ...       0.00
freq.    3063.14  E(vib)   ...       0.00
freq.    3064.37  E(vib)   ...       0.00
freq.    3064.78  E(vib)   ...       0.00
freq.    3069.62  E(vib)   ...       0.00
freq.    3069.85  E(vib)   ...       0.00
freq.    3078.60  E(vib)   ...       0.00
freq.    3161.57  E(vib)   ...       0.00
freq.    3162.94  E(vib)   ...       0.00
freq.    3164.13  E(vib)   ...       0.00
freq.    3165.64  E(vib)   ...       0.00
freq.    3168.64  E(vib)   ...       0.00
freq.    3172.41  E(vib)   ...       0.00
freq.    3173.45  E(vib)   ...       0.00
freq.    3173.48  E(vib)   ...       0.00
freq.    3177.57  E(vib)   ...       0.00
freq.    3187.38  E(vib)   ...       0.00
freq.    3191.37  E(vib)   ...       0.00
freq.    3204.98  E(vib)   ...       0.00
freq.    3298.44  E(vib)   ...       0.00
freq.    3323.15  E(vib)   ...       0.00

------------
INNER ENERGY
------------

The inner energy is: U= E(el) + E(ZPE) + E(vib) + E(rot) + E(trans)
    E(el)   - is the total energy from the electronic structure calculation
              = E(kin-el) + E(nuc-el) + E(el-el) + E(nuc-nuc)
    E(ZPE)  - the the zero temperature vibrational energy from the frequency calculation
    E(vib)  - the the finite temperature correction to E(ZPE) due to population
              of excited vibrational states
    E(rot)  - is the rotational thermal energy
    E(trans)- is the translational thermal energy

Summary of contributions to the inner energy U:
Electronic energy                ...   -540.17610208 Eh
Zero point energy                ...      0.29805790 Eh     187.03 kcal/mol
Thermal vibrational correction   ...      0.01146451 Eh       7.19 kcal/mol
Thermal rotational correction    ...      0.00141627 Eh       0.89 kcal/mol
Thermal translational correction ...      0.00141627 Eh       0.89 kcal/mol
-----------------------------------------------------------------------
Total thermal energy                   -539.86374713 Eh

Summary of corrections to the electronic energy:
(perhaps to be used in another calculation)
Total thermal correction                  0.01429705 Eh       8.97 kcal/mol
Non-thermal (ZPE) correction              0.29805790 Eh     187.03 kcal/mol
-----------------------------------------------------------------------
Total correction                          0.31235495 Eh     196.01 kcal/mol

--------
ENTHALPY
--------

The enthalpy is H = U + kB*T
                kB is Boltzmann's constant
Total free energy                 ...   -539.86374713 Eh
Thermal Enthalpy correction       ...      0.00094421 Eh       0.59 kcal/mol
-----------------------------------------------------------------------
Total Enthalpy                    ...   -539.86280292 Eh

Note: Only C1 symmetry has been detected, increase convergence thresholds
      if your molecule has a higher symmetry. Symmetry factor of 1.0 is
      used for the rotational entropy correction.

Note: Rotational entropy computed according to Herzberg
Infrared and Raman Spectra, Chapter V,1, Van Nostrand Reinhold, 1945

Rotational constants in cm-1:     0.055550     0.015125     0.014102

                             ****ORCA TERMINATED NORMALLY****
TOTAL RUN TIME: 0 days 0 hours 40 minutes 48 seconds 256 msec
