                         Program Version 5.0.3 -  RELEASE  -
|  1> ! Opt FREQ wB97X D4 Def2-SVP SlowConv TightSCF DEFGRID2 Def2/J RIJCOSX
|  2> %MAXCORE 4000
|  3> %scf MaxIter 20000 end
|  4> %geom
|  5> MaxIter 500
|  6> end
|  7> %PAL NPROCS 8 END
|  8>
|  9> * xyz 0 1
| 10> C -0.17208 0.82631 -1.67329
| 11> C -0.20057 -0.48029 -1.77061
| 12> C -0.1674 -0.04205 0.40587
| 13> H -0.10078 1.49126 -2.50163
| 14> H -0.16906 -1.00043 -2.7517
| 15> N -0.13198 1.14507 -0.35362
| 16> N -0.21454 -1.04185 -0.50564
| 17> C 0.1393 2.38771 0.31214
| 18> C -0.86651 3.35004 0.49444
| 19> C 1.49413 2.67458 0.64431
| 20> C -0.50765 4.61523 0.97934
| 21> C 1.79686 3.94562 1.07598
| 22> C 0.82902 4.96505 1.10852
| 23> H -1.21135 5.38851 0.9862
| 24> H 2.81624 4.13629 1.34628
| 25> H 1.0675 6.02 1.29047
| 26> C -0.30227 -2.40087 -0.18608
| 27> C -1.31614 -3.15498 -0.74609
| 28> C 0.77127 -2.96956 0.5077
| 29> C -1.25273 -4.52438 -0.58053
| 30> C 0.78271 -4.32988 0.74983
| 31> C -0.23003 -5.10952 0.16495
| 32> H -2.03605 -5.20192 -0.9773
| 33> H 1.61907 -4.76975 1.21753
| 34> H -0.24018 -6.16843 0.35668
| 35> C 2.46711 1.5027 0.50409
| 36> H 2.14396 0.70934 1.16553
| 37> H 2.34556 1.08657 -0.49148
| 38> H 3.55674 1.76582 0.67605
| 39> C 1.74197 -2.09242 1.16503
| 40> H 2.21207 -1.40018 0.46934
| 41> H 1.2167 -1.50883 1.92725
| 42> H 2.45094 -2.61726 1.80256
| 43> C -2.32514 3.28614 -0.02972
| 44> H -2.32254 3.76324 -1.00566
| 45> H -2.59097 2.25021 -0.20982
| 46> H -3.13267 3.71226 0.56921
| 47> C -2.31884 -2.46137 -1.67725
| 48> H -2.61847 -1.44275 -1.30698
| 49> H -1.81458 -2.27015 -2.62878
| 50> H -3.15076 -3.07691 -1.93426
| 51> **                         ****END OF INPUT****
 Total Charge           Charge          ....    0
 Multiplicity           Mult            ....    1
 Number of Electrons    NEL             ....  148
Dispersion correction           -0.009663604
FINAL SINGLE POINT ENERGY      -844.673503409201
Dispersion correction            ... Starting D4
Dispersion correction           -0.009576112
FINAL SINGLE POINT ENERGY      -844.705083200212
Dispersion correction            ... Starting D4
Dispersion correction           -0.009588759
FINAL SINGLE POINT ENERGY      -844.719425966927
Dispersion correction            ... Starting D4
FINAL SINGLE POINT ENERGY      -844.726387593446
FINAL SINGLE POINT ENERGY      -844.730094919407
FINAL SINGLE POINT ENERGY      -844.731506917424
FINAL SINGLE POINT ENERGY      -844.731796766903
FINAL SINGLE POINT ENERGY      -844.732081415203
FINAL SINGLE POINT ENERGY      -844.732348054384
FINAL SINGLE POINT ENERGY      -844.732585421684
FINAL SINGLE POINT ENERGY      -844.732745536647
FINAL SINGLE POINT ENERGY      -844.732816375176
FINAL SINGLE POINT ENERGY      -844.732850657900
FINAL SINGLE POINT ENERGY      -844.732866072614
FINAL SINGLE POINT ENERGY      -844.732878578320
Dispersion correction           -0.009619693
FINAL SINGLE POINT ENERGY      -844.732887860298
Dispersion correction            ... Starting D4
Dispersion correction           -0.009620082
FINAL SINGLE POINT ENERGY      -844.732895490068
Dispersion correction            ... Starting D4
                    ***********************HURRAY********************

CARTESIAN COORDINATES (ANGSTROEM)
---------------------------------
  C      0.427658    0.833601   -1.704053
  C      0.304016   -0.506628   -1.839551
  C     -0.112724   -0.008466    0.364237
  H      0.676452    1.609393   -2.425645
  H      0.419936   -1.156886   -2.704469
  N      0.168569    1.107746   -0.365774
  N     -0.023760   -0.988878   -0.577083
  C      0.214494    2.425414    0.192609
  C     -0.873822    3.285085   -0.008130
  C      1.351571    2.811033    0.916335
  C     -0.797045    4.575201    0.524214
  C      1.388518    4.107481    1.435140
  C      0.325903    4.984829    1.236957
  H     -1.635848    5.262891    0.380634
  H      2.265802    4.429441    2.004216
  H      0.371358    5.997176    1.647822
  C     -0.219805   -2.378470   -0.291353
  C     -1.504120   -2.922033   -0.425109
  C      0.882934   -3.146429    0.106349
  C     -1.668301   -4.285658   -0.167423
  C      0.677895   -4.505645    0.357252
  C     -0.585821   -5.072467    0.216322
  H     -2.662352   -4.732004   -0.265818
  H      1.524622   -5.124367    0.669478
  H     -0.730438   -6.138215    0.414142
  C      2.481470    1.842511    1.140087
  H      2.142314    0.997994    1.760443
  H      2.840800    1.417222    0.189546
  H      3.327031    2.333005    1.642288
  C      2.234570   -2.507974    0.286488
  H      2.559407   -1.980954   -0.624523
  H      2.198586   -1.758732    1.093350
  H      2.994914   -3.259442    0.540599
  C     -2.093836    2.817881   -0.757556
  H     -1.873865    2.636210   -1.821770
  H     -2.466661    1.869103   -0.341014
  H     -2.898240    3.564229   -0.700046
  C     -2.667735   -2.046059   -0.805795
  H     -2.802444   -1.244757   -0.062068
  H     -2.506709   -1.556170   -1.779182
  H     -3.597436   -2.629043   -0.863288

 Multiplicity           Mult            ....    1
 Number of Electrons    NEL             ....  148
 Basis Dimension        Dim             ....  394

ORBITAL ENERGIES
----------------

  NO   OCC          E(Eh)            E(eV)
   0   2.0000     -14.452803      -393.2808
   1   2.0000     -14.452688      -393.2776
   2   2.0000     -10.305755      -280.4339
   3   2.0000     -10.305510      -280.4272
   4   2.0000     -10.304198      -280.3915
   5   2.0000     -10.303566      -280.3743
   6   2.0000     -10.284990      -279.8688
   7   2.0000     -10.284675      -279.8602
   8   2.0000     -10.284619      -279.8587
   9   2.0000     -10.283820      -279.8370
  10   2.0000     -10.277222      -279.6574
  11   2.0000     -10.275977      -279.6235
  12   2.0000     -10.275553      -279.6120
  13   2.0000     -10.271905      -279.5127
  14   2.0000     -10.271860      -279.5115
  15   2.0000     -10.271790      -279.5096
  16   2.0000     -10.271778      -279.5093
  17   2.0000     -10.271216      -279.4940
  18   2.0000     -10.269928      -279.4590
  19   2.0000     -10.269755      -279.4542
  20   2.0000     -10.267072      -279.3812
  21   2.0000      -1.154168       -31.4065
  22   2.0000      -1.055013       -28.7084
  23   2.0000      -0.994017       -27.0486
  24   2.0000      -0.973036       -26.4777
  25   2.0000      -0.910874       -24.7861
  26   2.0000      -0.910483       -24.7755
  27   2.0000      -0.904060       -24.6007
  28   2.0000      -0.870906       -23.6986
  29   2.0000      -0.867321       -23.6010
  30   2.0000      -0.827565       -22.5192
  31   2.0000      -0.809324       -22.0228
  32   2.0000      -0.800214       -21.7749
  33   2.0000      -0.799154       -21.7461
  34   2.0000      -0.758710       -20.6455
  35   2.0000      -0.734754       -19.9937
  36   2.0000      -0.696633       -18.9563
  37   2.0000      -0.695267       -18.9192
  38   2.0000      -0.692419       -18.8417
  39   2.0000      -0.676920       -18.4199
  40   2.0000      -0.649495       -17.6737
  41   2.0000      -0.615674       -16.7533
  42   2.0000      -0.609288       -16.5796
  43   2.0000      -0.596182       -16.2229
  44   2.0000      -0.591883       -16.1060
  45   2.0000      -0.560749       -15.2587
  46   2.0000      -0.555850       -15.1254
  47   2.0000      -0.551240       -15.0000
  48   2.0000      -0.535146       -14.5621
  49   2.0000      -0.532145       -14.4804
  50   2.0000      -0.528600       -14.3839
  51   2.0000      -0.523507       -14.2453
  52   2.0000      -0.523124       -14.2349
  53   2.0000      -0.520487       -14.1632
  54   2.0000      -0.517681       -14.0868
  55   2.0000      -0.512782       -13.9535
  56   2.0000      -0.512349       -13.9417
  57   2.0000      -0.510648       -13.8954
  58   2.0000      -0.508030       -13.8242
  59   2.0000      -0.479634       -13.0515
  60   2.0000      -0.477006       -12.9800
  61   2.0000      -0.458732       -12.4827
  62   2.0000      -0.456016       -12.4088
  63   2.0000      -0.454434       -12.3658
  64   2.0000      -0.451078       -12.2745
  65   2.0000      -0.444488       -12.0951
  66   2.0000      -0.443546       -12.0695
  67   2.0000      -0.387078       -10.5329
  68   2.0000      -0.343400        -9.3444
  69   2.0000      -0.338290        -9.2053
  70   2.0000      -0.334727        -9.1084
  71   2.0000      -0.332978        -9.0608
  72   2.0000      -0.328752        -8.9458
  73   2.0000      -0.312977        -8.5165
  74   0.0000       0.065991         1.7957
  75   0.0000       0.072080         1.9614
  76   0.0000       0.076774         2.0891
  77   0.0000       0.078295         2.1305
  78   0.0000       0.113800         3.0967

MULLIKEN ATOMIC CHARGES
-----------------------
   0 C :    0.048976
   1 C :    0.051909
   2 C :   -0.067834
   3 H :    0.040839
   4 H :    0.040310
   5 N :   -0.221843
   6 N :   -0.221171
   7 C :    0.066004
   8 C :   -0.093540
   9 C :   -0.086011
  10 C :   -0.071552
  11 C :   -0.071085
  12 C :    0.025807
  13 H :   -0.003752
  14 H :   -0.003302
  15 H :    0.010855
  16 C :    0.061099
  17 C :   -0.087278
  18 C :   -0.087486
  19 C :   -0.070711
  20 C :   -0.070515
  21 C :    0.026151
  22 H :   -0.003418
  23 H :   -0.003508
  24 H :    0.011058
  25 C :    0.083527
  26 H :    0.065519
  27 H :    0.030567
  28 H :    0.018399
  29 C :    0.084139
  30 H :    0.033956
  31 H :    0.056468
  32 H :    0.020059
  33 C :    0.085677
  34 H :    0.037555
  35 H :    0.047434
  36 H :    0.022827
  37 C :    0.079926
  38 H :    0.058959
  39 H :    0.034861
  40 H :    0.020123
Sum of atomic charges:    0.0000000

LOEWDIN ATOMIC CHARGES
----------------------
   0 C :   -0.028739
   1 C :   -0.029810
   2 C :   -0.225452
   3 H :    0.032978
   4 H :    0.033160
   5 N :    0.037709
   6 N :    0.038238
   7 C :    0.010284
   8 C :   -0.021846
   9 C :   -0.015298
  10 C :   -0.040480
  11 C :   -0.039382
  12 C :   -0.021705
  13 H :    0.027890
  14 H :    0.028256
  15 H :    0.031783
  16 C :    0.009735
  17 C :   -0.018227
  18 C :   -0.017878
  19 C :   -0.040177
  20 C :   -0.040218
  21 C :   -0.021083
  22 H :    0.028096
  23 H :    0.028094
  24 H :    0.031873
  25 C :   -0.051241
  26 H :    0.043330
  27 H :    0.033795
  28 H :    0.028934
  29 C :   -0.050393
  30 H :    0.033903
  31 H :    0.042735
  32 H :    0.029864
  33 C :   -0.050414
  34 H :    0.034546
  35 H :    0.040082
  36 H :    0.031071
  37 C :   -0.050906
  38 H :    0.042649
  39 H :    0.034301
  40 H :    0.029947

  Mayer bond orders larger than 0.100000
B(  0-C ,  1-C ) :   1.6234 B(  0-C ,  3-H ) :   0.9919 B(  0-C ,  5-N ) :   1.0943
B(  1-C ,  4-H ) :   0.9928 B(  1-C ,  6-N ) :   1.0936 B(  2-C ,  5-N ) :   1.1935
B(  2-C ,  6-N ) :   1.1962 B(  5-N ,  7-C ) :   0.9485 B(  6-N , 16-C ) :   0.9511
B(  7-C ,  8-C ) :   1.4384 B(  7-C ,  9-C ) :   1.4362 B(  8-C , 10-C ) :   1.3947
B(  8-C , 33-C ) :   1.0524 B(  9-C , 11-C ) :   1.3981 B(  9-C , 25-C ) :   1.0554
B( 10-C , 12-C ) :   1.3907 B( 10-C , 13-H ) :   0.9900 B( 11-C , 12-C ) :   1.3867
B( 11-C , 14-H ) :   0.9896 B( 12-C , 15-H ) :   0.9898 B( 16-C , 17-C ) :   1.4394
B( 16-C , 18-C ) :   1.4378 B( 17-C , 19-C ) :   1.3962 B( 17-C , 37-C ) :   1.0507
B( 18-C , 20-C ) :   1.3968 B( 18-C , 29-C ) :   1.0525 B( 19-C , 21-C ) :   1.3894
B( 19-C , 22-H ) :   0.9894 B( 20-C , 21-C ) :   1.3885 B( 20-C , 23-H ) :   0.9895
B( 21-C , 24-H ) :   0.9896 B( 25-C , 26-H ) :   0.9462 B( 25-C , 27-H ) :   0.9549
B( 25-C , 28-H ) :   0.9561 B( 29-C , 30-H ) :   0.9534 B( 29-C , 31-H ) :   0.9516
B( 29-C , 32-H ) :   0.9575 B( 33-C , 34-H ) :   0.9506 B( 33-C , 35-H ) :   0.9556
B( 33-C , 36-H ) :   0.9587 B( 37-C , 38-H ) :   0.9526 B( 37-C , 39-H ) :   0.9540
B( 37-C , 40-H ) :   0.9581

Dispersion correction           -0.009620441
FINAL SINGLE POINT ENERGY      -844.732902323562

DIPOLE MOMENT
-------------
                                X             Y             Z
Electronic contribution:      0.03193      -0.03681      -0.12026
Nuclear contribution   :      0.18213       0.10641      -0.82509
                        -----------------------------------------
Total Dipole Moment    :      0.21406       0.06960      -0.94535
                        -----------------------------------------
Magnitude (a.u.)       :      0.97178
Magnitude (Debye)      :      2.47007

Dispersion correction in the Hessian             ... Starting D4

VIBRATIONAL FREQUENCIES
-----------------------

Scaling factor for frequencies =  1.000000000  (already applied!)

   0:         0.00 cm**-1
   1:         0.00 cm**-1
   2:         0.00 cm**-1
   3:         0.00 cm**-1
   4:         0.00 cm**-1
   5:         0.00 cm**-1
   6:        12.63 cm**-1
   7:        15.95 cm**-1
   8:        40.44 cm**-1
   9:        57.23 cm**-1
  10:        71.63 cm**-1
  11:        90.15 cm**-1
  12:        95.31 cm**-1
  13:       133.36 cm**-1
  14:       148.03 cm**-1
  15:       166.13 cm**-1
  16:       182.99 cm**-1
  17:       199.37 cm**-1
  18:       208.00 cm**-1
  19:       238.05 cm**-1
  20:       239.88 cm**-1
  21:       283.54 cm**-1
  22:       307.79 cm**-1
  23:       335.46 cm**-1
  24:       359.38 cm**-1
  25:       360.15 cm**-1
  26:       398.97 cm**-1
  27:       437.46 cm**-1
  28:       483.90 cm**-1
  29:       493.77 cm**-1
  30:       535.99 cm**-1
  31:       536.73 cm**-1
  32:       545.03 cm**-1
  33:       548.70 cm**-1
  34:       579.21 cm**-1
  35:       596.36 cm**-1
  36:       602.61 cm**-1
  37:       629.36 cm**-1
  38:       678.97 cm**-1
  39:       684.42 cm**-1
  40:       741.89 cm**-1
  41:       770.95 cm**-1
  42:       782.80 cm**-1
  43:       789.11 cm**-1
  44:       796.80 cm**-1
  45:       804.39 cm**-1
  46:       805.34 cm**-1
  47:       870.44 cm**-1
  48:       936.14 cm**-1
  49:       938.08 cm**-1
  50:       945.52 cm**-1
  51:       946.35 cm**-1
  52:       965.82 cm**-1
  53:       972.77 cm**-1
  54:      1007.65 cm**-1
  55:      1009.74 cm**-1
  56:      1027.94 cm**-1
  57:      1029.10 cm**-1
  58:      1059.46 cm**-1
  59:      1060.58 cm**-1
  60:      1062.29 cm**-1
  61:      1063.46 cm**-1
  62:      1064.77 cm**-1
  63:      1066.08 cm**-1
  64:      1088.60 cm**-1
  65:      1095.50 cm**-1
  66:      1103.21 cm**-1
  67:      1131.40 cm**-1
  68:      1143.91 cm**-1
  69:      1178.71 cm**-1
  70:      1182.26 cm**-1
  71:      1266.31 cm**-1
  72:      1280.17 cm**-1
  73:      1282.84 cm**-1
  74:      1301.15 cm**-1
  75:      1304.37 cm**-1
  76:      1326.56 cm**-1
  77:      1336.59 cm**-1
  78:      1336.88 cm**-1
  79:      1371.70 cm**-1
  80:      1400.61 cm**-1
  81:      1403.15 cm**-1
  82:      1404.68 cm**-1
  83:      1408.77 cm**-1
  84:      1425.24 cm**-1
  85:      1443.88 cm**-1
  86:      1453.59 cm**-1
  87:      1458.61 cm**-1
  88:      1459.54 cm**-1
  89:      1460.40 cm**-1
  90:      1461.79 cm**-1
  91:      1467.79 cm**-1
  92:      1471.73 cm**-1
  93:      1475.79 cm**-1
  94:      1538.19 cm**-1
  95:      1538.77 cm**-1
  96:      1560.70 cm**-1
  97:      1567.00 cm**-1
  98:      1655.44 cm**-1
  99:      1705.02 cm**-1
 100:      1706.62 cm**-1
 101:      1709.15 cm**-1
 102:      1709.96 cm**-1
 103:      3067.79 cm**-1
 104:      3068.05 cm**-1
 105:      3068.69 cm**-1
 106:      3069.29 cm**-1
 107:      3157.07 cm**-1
 108:      3157.21 cm**-1
 109:      3158.39 cm**-1
 110:      3158.49 cm**-1
 111:      3182.50 cm**-1
 112:      3182.76 cm**-1
 113:      3183.23 cm**-1
 114:      3183.58 cm**-1
 115:      3203.98 cm**-1
 116:      3204.15 cm**-1
 117:      3211.60 cm**-1
 118:      3211.99 cm**-1
 119:      3227.87 cm**-1
 120:      3228.71 cm**-1
 121:      3285.95 cm**-1
 122:      3308.74 cm**-1

IR SPECTRUM
-----------

 Mode   freq       eps      Int      T**2         TX        TY        TZ
       cm**-1   L/(mol*cm) km/mol    a.u.
----------------------------------------------------------------------------
  6:     12.63   0.000176    0.89  0.004345  ( 0.064614  0.006290  0.011407)
  7:     15.95   0.000081    0.41  0.001578  (-0.037733  0.004979 -0.011363)
  8:     40.44   0.000401    2.03  0.003094  ( 0.054935  0.006027  0.006321)
  9:     57.23   0.000080    0.40  0.000436  ( 0.019087 -0.000299 -0.008474)
 10:     71.63   0.000558    2.82  0.002431  (-0.044182  0.006388 -0.020941)
 11:     90.15   0.000002    0.01  0.000008  (-0.002239 -0.001398 -0.000803)
 12:     95.31   0.000031    0.15  0.000100  (-0.002328  0.009257  0.002985)
 13:    133.36   0.000528    2.67  0.001236  ( 0.015318  0.006529 -0.030968)
 14:    148.03   0.000116    0.58  0.000244  ( 0.002267  0.012759  0.008695)
 15:    166.13   0.000025    0.13  0.000047  ( 0.003081 -0.002881 -0.005408)
 16:    182.99   0.000156    0.79  0.000265  (-0.003429 -0.015222  0.004679)
 17:    199.37   0.001008    5.09  0.001577  (-0.007935 -0.038387 -0.006372)
 18:    208.00   0.000418    2.11  0.000627  ( 0.007391 -0.000941 -0.023915)
 19:    238.05   0.000014    0.07  0.000018  ( 0.003934  0.001028 -0.001144)
 20:    239.88   0.000013    0.06  0.000017  ( 0.003059 -0.000739  0.002570)
 21:    283.54   0.000623    3.15  0.000686  (-0.000042 -0.025931 -0.003702)
 22:    307.79   0.001748    8.84  0.001773  (-0.040421 -0.000173 -0.011781)
 23:    335.46   0.000953    4.81  0.000886  ( 0.010621  0.003079 -0.027641)
 24:    359.38   0.000613    3.10  0.000532  ( 0.006880  0.001104 -0.021988)
 25:    360.15   0.000022    0.11  0.000019  ( 0.000616  0.003131 -0.002927)
 26:    398.97   0.000624    3.15  0.000488  ( 0.000651 -0.022070 -0.000689)
 27:    437.46   0.000019    0.10  0.000013  (-0.001848  0.003148 -0.000293)
 28:    483.90   0.000088    0.44  0.000057  (-0.007418  0.000162 -0.001237)
 29:    493.77   0.000018    0.09  0.000011  ( 0.000140  0.003346  0.000132)
 30:    535.99   0.000080    0.40  0.000047  ( 0.005940 -0.002664  0.002043)
 31:    536.73   0.000020    0.10  0.000011  ( 0.003248  0.000022  0.000943)
 32:    545.03   0.000077    0.39  0.000044  ( 0.005844 -0.001912  0.002502)
 33:    548.70   0.000004    0.02  0.000002  (-0.000430  0.000993  0.000987)
 34:    579.21   0.000172    0.87  0.000093  (-0.002145 -0.000467  0.009383)
 35:    596.36   0.000053    0.27  0.000028  (-0.001274 -0.000292  0.005098)
 36:    602.61   0.000093    0.47  0.000048  ( 0.000249  0.006897  0.000655)
 37:    629.36   0.001867    9.43  0.000926  ( 0.002226  0.030232  0.002597)
 38:    678.97   0.001165    5.89  0.000535  (-0.021182  0.007297 -0.005788)
 39:    684.42   0.000015    0.08  0.000007  (-0.002327  0.000130  0.001222)
 40:    741.89   0.006057   30.61  0.002548  (-0.049496  0.006122 -0.007773)
 41:    770.95   0.000020    0.10  0.000008  ( 0.000115  0.000056  0.002877)
 42:    782.80   0.000915    4.62  0.000365  (-0.002042 -0.018919 -0.001602)
 43:    789.11   0.000242    1.22  0.000096  (-0.001767 -0.001764  0.009453)
 44:    796.80   0.000672    3.40  0.000263  (-0.001108 -0.016139  0.001272)
 45:    804.39   0.010737   54.26  0.004165  (-0.020124  0.001456  0.061305)
 46:    805.34   0.002355   11.90  0.000912  ( 0.012136  0.027164 -0.005217)
 47:    870.44   0.000009    0.04  0.000003  (-0.000435 -0.001362 -0.001027)
 48:    936.14   0.000007    0.04  0.000002  (-0.000439  0.001100  0.000958)
 49:    938.08   0.000021    0.11  0.000007  ( 0.002590 -0.000039  0.000543)
 50:    945.52   0.000377    1.91  0.000124  ( 0.010829  0.000528  0.002631)
 51:    946.35   0.000549    2.78  0.000181  ( 0.011520 -0.004926  0.004916)
 52:    965.82   0.007770   39.26  0.002510  (-0.004582 -0.049665 -0.004774)
 53:    972.77   0.000390    1.97  0.000125  (-0.002261 -0.000297  0.010946)
 54:   1007.65   0.000763    3.85  0.000236  ( 0.001648  0.015280 -0.000191)
 55:   1009.74   0.000525    2.65  0.000162  (-0.001005 -0.012195 -0.003519)
 56:   1027.94   0.000014    0.07  0.000004  ( 0.000141  0.001131 -0.001745)
 57:   1029.10   0.000045    0.23  0.000014  (-0.000226 -0.000115 -0.003705)
 58:   1059.46   0.000181    0.91  0.000053  (-0.000298  0.001632  0.007104)
 59:   1060.58   0.000380    1.92  0.000112  ( 0.000509  0.002333 -0.010301)
 60:   1062.29   0.000147    0.74  0.000043  (-0.006079 -0.002182  0.001175)
 61:   1063.46   0.000757    3.83  0.000222  ( 0.002390 -0.000198 -0.014709)
 62:   1064.77   0.000864    4.37  0.000253  ( 0.001024  0.004445 -0.015248)
 63:   1066.08   0.000867    4.38  0.000254  (-0.005366  0.000915  0.014975)
 64:   1088.60   0.003432   17.35  0.000984  (-0.007413 -0.001354  0.030449)
 65:   1095.50   0.000115    0.58  0.000033  (-0.001399 -0.005280  0.001723)
 66:   1103.21   0.000122    0.62  0.000035  ( 0.000737 -0.000432 -0.005811)
 67:   1131.40   0.004172   21.09  0.001151  (-0.002950 -0.033594 -0.003682)
 68:   1143.91   0.000101    0.51  0.000028  ( 0.001095  0.003708 -0.003543)
 69:   1178.71   0.000379    1.92  0.000100  (-0.009106  0.000436 -0.004158)
 70:   1182.26   0.000417    2.11  0.000110  (-0.010217  0.000975 -0.002205)
 71:   1266.31   0.004513   22.81  0.001112  (-0.002933 -0.033065 -0.003215)
 72:   1280.17   0.000131    0.66  0.000032  (-0.002479 -0.004995 -0.000919)
 73:   1282.84   0.000017    0.09  0.000004  ( 0.001854 -0.000507  0.000707)
 74:   1301.15   0.000004    0.02  0.000001  (-0.000010  0.000547  0.000824)
 75:   1304.37   0.000308    1.56  0.000074  (-0.000899 -0.008460 -0.001112)
 76:   1326.56   0.002320   11.72  0.000546  (-0.003122 -0.023040 -0.002265)
 77:   1336.59   0.000187    0.94  0.000044  ( 0.004280 -0.004991  0.000601)
 78:   1336.88   0.000902    4.56  0.000211  ( 0.014017 -0.002596  0.002724)
 79:   1371.70   0.000872    4.41  0.000198  ( 0.000550 -0.001917  0.013941)
 80:   1400.61   0.000054    0.27  0.000012  ( 0.000812  0.003369 -0.000152)
 81:   1403.15   0.000534    2.70  0.000119  ( 0.009283 -0.001795  0.005422)
 82:   1404.68   0.000081    0.41  0.000018  ( 0.003090  0.002730  0.000996)
 83:   1408.77   0.000518    2.62  0.000115  ( 0.000997 -0.010591 -0.001261)
 84:   1425.24   0.000136    0.69  0.000030  (-0.002335 -0.000715  0.004881)
 85:   1443.88   0.011657   58.91  0.002519  (-0.003685 -0.050038 -0.001435)
 86:   1453.59   0.002224   11.24  0.000477  (-0.002270  0.012677  0.017653)
 87:   1458.61   0.000513    2.59  0.000110  (-0.000967 -0.000644  0.010414)
 88:   1459.54   0.001046    5.29  0.000224  ( 0.009341  0.004716 -0.010686)
 89:   1460.40   0.004146   20.95  0.000886  ( 0.003026  0.001589 -0.029567)
 90:   1461.79   0.001216    6.15  0.000260  ( 0.005417  0.000737 -0.015159)
 91:   1467.79   0.003861   19.51  0.000821  ( 0.028350  0.001269  0.003935)
 92:   1471.73   0.000685    3.46  0.000145  (-0.002219 -0.000456  0.011833)
 93:   1475.79   0.000543    2.75  0.000115  ( 0.002173 -0.010493 -0.000258)
 94:   1538.19   0.001100    5.56  0.000223  (-0.012943  0.002304 -0.007098)
 95:   1538.77   0.004897   24.75  0.000993  (-0.030266  0.003510 -0.008047)
 96:   1560.70   0.039547  199.85  0.007907  ( 0.007321  0.088002  0.010461)
 97:   1567.00   0.001603    8.10  0.000319  (-0.004042 -0.008647  0.015103)
 98:   1655.44   0.000144    0.73  0.000027  ( 0.001621 -0.000623 -0.004912)
 99:   1705.02   0.000337    1.70  0.000062  (-0.001142 -0.007722 -0.000874)
100:   1706.62   0.000002    0.01  0.000000  ( 0.000462 -0.000317 -0.000271)
101:   1709.15   0.000045    0.23  0.000008  (-0.001524  0.001267 -0.002077)
102:   1709.96   0.001933    9.77  0.000353  (-0.017770  0.003070 -0.005254)
103:   3067.79   0.001688    8.53  0.000172  ( 0.012036  0.004980  0.001410)
104:   3068.05   0.006740   34.06  0.000686  (-0.025177  0.005701 -0.004375)
105:   3068.69   0.002382   12.04  0.000242  ( 0.011273 -0.004469  0.009757)
106:   3069.29   0.000856    4.32  0.000087  ( 0.004413  0.005983  0.005634)
107:   3157.07   0.001801    9.10  0.000178  ( 0.005450  0.000573 -0.012167)
108:   3157.21   0.001269    6.42  0.000125  (-0.003612 -0.001423  0.010507)
109:   3158.39   0.000255    1.29  0.000025  (-0.000233  0.002295 -0.004456)
110:   3158.49   0.000681    3.44  0.000067  ( 0.002268 -0.003031 -0.007277)
111:   3182.50   0.002666   13.47  0.000261  ( 0.006304  0.013799  0.005588)
112:   3182.76   0.003972   20.07  0.000389  (-0.017327  0.006468 -0.006882)
113:   3183.23   0.001548    7.83  0.000152  ( 0.009534  0.007211 -0.002986)
114:   3183.58   0.002608   13.18  0.000256  ( 0.002887 -0.015659 -0.001463)
115:   3203.98   0.000029    0.15  0.000003  (-0.000860  0.001418 -0.000208)
116:   3204.15   0.000052    0.27  0.000005  (-0.000744  0.002111  0.000317)
117:   3211.60   0.002624   13.26  0.000255  (-0.014492  0.003247 -0.005869)
118:   3211.99   0.002746   13.88  0.000267  (-0.015828  0.001836 -0.003594)
119:   3227.87   0.003704   18.72  0.000358  ( 0.002722  0.018588 -0.002281)
120:   3228.71   0.003117   15.75  0.000301  ( 0.000871  0.016128  0.006354)
121:   3285.95   0.000944    4.77  0.000090  ( 0.001168  0.009333  0.001096)
122:   3308.74   0.000094    0.48  0.000009  (-0.000980  0.000087  0.002817)

--------------------------
THERMOCHEMISTRY AT 298.15K
--------------------------

Temperature         ... 298.15 K
Pressure            ... 1.00 atm
Total Mass          ... 276.38 AMU

Throughout the following assumptions are being made:
  (1) The electronic state is orbitally nondegenerate
  (2) There are no thermally accessible electronically excited states
  (3) Hindered rotations indicated by low frequency modes are not
      treated as such but are treated as vibrations and this may
      cause some error
  (4) All equations used are the standard statistical mechanics
      equations for an ideal gas
  (5) All vibrations are strictly harmonic

freq.      12.63  E(vib)   ...       0.57
freq.      15.95  E(vib)   ...       0.57
freq.      40.44  E(vib)   ...       0.54
freq.      57.23  E(vib)   ...       0.51
freq.      71.63  E(vib)   ...       0.50
freq.      90.15  E(vib)   ...       0.47
freq.      95.31  E(vib)   ...       0.47
freq.     133.36  E(vib)   ...       0.42
freq.     148.03  E(vib)   ...       0.41
freq.     166.13  E(vib)   ...       0.39
freq.     182.99  E(vib)   ...       0.37
freq.     199.37  E(vib)   ...       0.35
freq.     208.00  E(vib)   ...       0.34
freq.     238.05  E(vib)   ...       0.32
freq.     239.88  E(vib)   ...       0.31
freq.     283.54  E(vib)   ...       0.28
freq.     307.79  E(vib)   ...       0.26
freq.     335.46  E(vib)   ...       0.24
freq.     359.38  E(vib)   ...       0.22
freq.     360.15  E(vib)   ...       0.22
freq.     398.97  E(vib)   ...       0.19
freq.     437.46  E(vib)   ...       0.17
freq.     483.90  E(vib)   ...       0.15
freq.     493.77  E(vib)   ...       0.14
freq.     535.99  E(vib)   ...       0.12
freq.     536.73  E(vib)   ...       0.12
freq.     545.03  E(vib)   ...       0.12
freq.     548.70  E(vib)   ...       0.12
freq.     579.21  E(vib)   ...       0.11
freq.     596.36  E(vib)   ...       0.10
freq.     602.61  E(vib)   ...       0.10
freq.     629.36  E(vib)   ...       0.09
freq.     678.97  E(vib)   ...       0.08
freq.     684.42  E(vib)   ...       0.07
freq.     741.89  E(vib)   ...       0.06
freq.     770.95  E(vib)   ...       0.05
freq.     782.80  E(vib)   ...       0.05
freq.     789.11  E(vib)   ...       0.05
freq.     796.80  E(vib)   ...       0.05
freq.     804.39  E(vib)   ...       0.05
freq.     805.34  E(vib)   ...       0.05
freq.     870.44  E(vib)   ...       0.04
freq.     936.14  E(vib)   ...       0.03
freq.     938.08  E(vib)   ...       0.03
freq.     945.52  E(vib)   ...       0.03
freq.     946.35  E(vib)   ...       0.03
freq.     965.82  E(vib)   ...       0.03
freq.     972.77  E(vib)   ...       0.03
freq.    1007.65  E(vib)   ...       0.02
freq.    1009.74  E(vib)   ...       0.02
freq.    1027.94  E(vib)   ...       0.02
freq.    1029.10  E(vib)   ...       0.02
freq.    1059.46  E(vib)   ...       0.02
freq.    1060.58  E(vib)   ...       0.02
freq.    1062.29  E(vib)   ...       0.02
freq.    1063.46  E(vib)   ...       0.02
freq.    1064.77  E(vib)   ...       0.02
freq.    1066.08  E(vib)   ...       0.02
freq.    1088.60  E(vib)   ...       0.02
freq.    1095.50  E(vib)   ...       0.02
freq.    1103.21  E(vib)   ...       0.02
freq.    1131.40  E(vib)   ...       0.01
freq.    1143.91  E(vib)   ...       0.01
freq.    1178.71  E(vib)   ...       0.01
freq.    1182.26  E(vib)   ...       0.01
freq.    1266.31  E(vib)   ...       0.01
freq.    1280.17  E(vib)   ...       0.01
freq.    1282.84  E(vib)   ...       0.01
freq.    1301.15  E(vib)   ...       0.01
freq.    1304.37  E(vib)   ...       0.01
freq.    1326.56  E(vib)   ...       0.01
freq.    1336.59  E(vib)   ...       0.01
freq.    1336.88  E(vib)   ...       0.01
freq.    1371.70  E(vib)   ...       0.01
freq.    1400.61  E(vib)   ...       0.00
freq.    1403.15  E(vib)   ...       0.00
freq.    1404.68  E(vib)   ...       0.00
freq.    1408.77  E(vib)   ...       0.00
freq.    1425.24  E(vib)   ...       0.00
freq.    1443.88  E(vib)   ...       0.00
freq.    1453.59  E(vib)   ...       0.00
freq.    1458.61  E(vib)   ...       0.00
freq.    1459.54  E(vib)   ...       0.00
freq.    1460.40  E(vib)   ...       0.00
freq.    1461.79  E(vib)   ...       0.00
freq.    1467.79  E(vib)   ...       0.00
freq.    1471.73  E(vib)   ...       0.00
freq.    1475.79  E(vib)   ...       0.00
freq.    1538.19  E(vib)   ...       0.00
freq.    1538.77  E(vib)   ...       0.00
freq.    1560.70  E(vib)   ...       0.00
freq.    1567.00  E(vib)   ...       0.00
freq.    1655.44  E(vib)   ...       0.00
freq.    1705.02  E(vib)   ...       0.00
freq.    1706.62  E(vib)   ...       0.00
freq.    1709.15  E(vib)   ...       0.00
freq.    1709.96  E(vib)   ...       0.00
freq.    3067.79  E(vib)   ...       0.00
freq.    3068.05  E(vib)   ...       0.00
freq.    3068.69  E(vib)   ...       0.00
freq.    3069.29  E(vib)   ...       0.00
freq.    3157.07  E(vib)   ...       0.00
freq.    3157.21  E(vib)   ...       0.00
freq.    3158.39  E(vib)   ...       0.00
freq.    3158.49  E(vib)   ...       0.00
freq.    3182.50  E(vib)   ...       0.00
freq.    3182.76  E(vib)   ...       0.00
freq.    3183.23  E(vib)   ...       0.00
freq.    3183.58  E(vib)   ...       0.00
freq.    3203.98  E(vib)   ...       0.00
freq.    3204.15  E(vib)   ...       0.00
freq.    3211.60  E(vib)   ...       0.00
freq.    3211.99  E(vib)   ...       0.00
freq.    3227.87  E(vib)   ...       0.00
freq.    3228.71  E(vib)   ...       0.00
freq.    3285.95  E(vib)   ...       0.00
freq.    3308.74  E(vib)   ...       0.00

------------
INNER ENERGY
------------

The inner energy is: U= E(el) + E(ZPE) + E(vib) + E(rot) + E(trans)
    E(el)   - is the total energy from the electronic structure calculation
              = E(kin-el) + E(nuc-el) + E(el-el) + E(nuc-nuc)
    E(ZPE)  - the the zero temperature vibrational energy from the frequency calculation
    E(vib)  - the the finite temperature correction to E(ZPE) due to population
              of excited vibrational states
    E(rot)  - is the rotational thermal energy
    E(trans)- is the translational thermal energy

Summary of contributions to the inner energy U:
Electronic energy                ...   -844.73290232 Eh
Zero point energy                ...      0.34616997 Eh     217.22 kcal/mol
Thermal vibrational correction   ...      0.01665059 Eh      10.45 kcal/mol
Thermal rotational correction    ...      0.00141627 Eh       0.89 kcal/mol
Thermal translational correction ...      0.00141627 Eh       0.89 kcal/mol
-----------------------------------------------------------------------
Total thermal energy                   -844.36724921 Eh

Summary of corrections to the electronic energy:
(perhaps to be used in another calculation)
Total thermal correction                  0.01948314 Eh      12.23 kcal/mol

Rotational constants in cm-1:     0.023864     0.005959     0.005187

                             ****ORCA TERMINATED NORMALLY****
TOTAL RUN TIME: 0 days 0 hours 51 minutes 11 seconds 605 msec
