   * xtb version 6.6.1 (8d0f1dd) compiled by 'conda@1efc2f54142f' on 2023-08-01
          program call               : xtb struc.xyz --gfn2 --ceasefiles --opt

   ID    Z sym.   atoms
    1    6 C      1, 2, 5-7, 11-14, 27, 28
    2    7 N      3, 4
    3    1 H      8-10, 15-26, 29-34

          :  Hamiltonian                  GFN2-xTB          :
 * total energy  :   -39.7428031 Eh     change       -0.1299583E-10 Eh
 * total energy  :   -39.7647978 Eh     change       -0.2199473E-01 Eh
 * total energy  :   -39.7709610 Eh     change       -0.6163249E-02 Eh
 * total energy  :   -39.7735736 Eh     change       -0.2612528E-02 Eh
 * total energy  :   -39.7751787 Eh     change       -0.1605139E-02 Eh
 * total energy  :   -39.7761272 Eh     change       -0.9484789E-03 Eh
 * total energy  :   -39.7767669 Eh     change       -0.6397429E-03 Eh
 * total energy  :   -39.7772285 Eh     change       -0.4615899E-03 Eh
 * total energy  :   -39.7775531 Eh     change       -0.3245673E-03 Eh
 * total energy  :   -39.7777549 Eh     change       -0.2018133E-03 Eh
   *** GEOMETRY OPTIMIZATION CONVERGED AFTER 10 ITERATIONS ***

 final structure:
================
34
 xtb: 6.6.1 (8d0f1dd)
C           -2.16007792482772        0.66464970285349        1.08304930372138
C            2.28653012088028       -0.37555650012204       -0.87185256630758
N           -1.08934494550177       -0.00487834172145        0.32503825386260
N            0.84941924107681       -0.47278127974420       -0.55469291205174
C           -1.28598721054873       -0.96759458114349       -0.61861922883927
C           -0.07691347014696       -1.26081758687623       -1.16734114302310
C            0.21029735647782        0.27465865410373        0.34027923340205
H           -2.24399081823796       -1.38952681891514       -0.83936455045274
H            0.15931779009428       -1.95590803601950       -1.94269049561421
H            0.67442640667579        0.98825928372471        0.98822268263254
C           -1.55342409371258        1.64362898645699        2.08459276717641
C            3.07036089893312       -0.18857167928868        0.42513346848613
C            2.46268951204417        0.83176888475749       -1.79640838788135
C           -3.02530384147011        1.41651340066452        0.06828466274206
H           -0.97569258973002        2.42316298724354        1.58557443630514
H            2.84788067334755       -0.98425821693679        1.13201400811894
H            2.19306307326426        1.75646779507694       -1.29263235925754
H           -2.43320850791088        2.14680809569081       -0.47773566925173
H           -2.36074984713931        2.13501121371655        2.62303603764813
H            2.86783403866416        0.77198385942139        0.88987604876548
H            3.50068002263959        0.90434288344937       -2.10958236028569
H           -3.82035483572887        1.94221763128314        0.58881078176560
H           -0.93012205862138        1.12689213003242        2.81581691813408
H            4.13445669649930       -0.21934611518996        0.20713128656185
H            1.84837789819101        0.72710966878013       -2.68838705593910
H           -3.48307630242978        0.73456770431816       -0.64421454142233
C           -2.97699595771803       -0.39228857695452        1.82291422140434
C            2.74005332672498       -1.65189050706260       -1.57562859393334
H           -3.80222131537654        0.08862653648636        2.33434821315392
H            2.30055357252598       -1.74122078127541       -2.56574923211645
H           -3.39081421602887       -1.13333982057991        1.14771908807345
H            2.49611411650906       -2.53280342444278       -0.98813396092225
H            3.81873743499799       -1.61838955945770       -1.70381573742881
H           -2.37135283981666       -0.90435902412948        2.56527487327314

          :  Hamiltonian                  GFN2-xTB          :
         :: total energy             -39.777754900840 Eh    ::
         :: gradient norm              0.006454596781 Eh/a0 ::
         :: HOMO-LUMO gap              4.832433958419 eV    ::
         :: SCC energy               -40.388829478736 Eh    ::
         :: -> dispersion             -0.027892566171 Eh    ::
         :: repulsion energy           0.610798796356 Eh    ::

    * Orbital Energies and Occupations

         #    Occupation            Energy/Eh            Energy/eV
      -------------------------------------------------------------
         1        2.0000           -0.8782607             -23.8987
       ...           ...                  ...                  ...
        25        2.0000           -0.6011222             -16.3574
        26        2.0000           -0.5995682             -16.3151
        27        2.0000           -0.5985377             -16.2870
        28        2.0000           -0.5964056             -16.2290
        29        2.0000           -0.5936956             -16.1553
        30        2.0000           -0.5910540             -16.0834
        31        2.0000           -0.5904644             -16.0674
        32        2.0000           -0.5897037             -16.0467
        33        2.0000           -0.5815159             -15.8239
        34        2.0000           -0.5784523             -15.7405
        35        2.0000           -0.5778167             -15.7232
        36        2.0000           -0.5737221             -15.6118
        37        2.0000           -0.5702664             -15.5177 (HOMO)
        38                         -0.3926778             -10.6853 (LUMO)
        39                         -0.3566791              -9.7057
        40                         -0.1956453              -5.3238
        41                         -0.1470623              -4.0018
        42                         -0.0735658              -2.0018
        43                         -0.0600987              -1.6354
        44                         -0.0579268              -1.5763
        45                         -0.0556269              -1.5137
        46                         -0.0440127              -1.1976
        47                         -0.0363964              -0.9904
        48                         -0.0307617              -0.8371
       ...                                ...                  ...
        73                          0.4754080              12.9365
      -------------------------------------------------------------
                  HL-Gap            0.1775887 Eh            4.8324 eV

     #   Z          covCN         q      C6AA      α(0)
     1   6 C        3.837     0.075    19.302     6.250
     2   6 C        3.837     0.075    19.307     6.251
     3   7 N        2.868     0.048    20.407     6.709
     4   7 N        2.871     0.046    20.427     6.713
     5   6 C        3.084    -0.005    28.061     8.684
     6   6 C        3.076    -0.007    28.106     8.692
     7   6 C        3.116     0.051    26.692     8.463
     8   1 H        0.927     0.098     1.803     2.100
     9   1 H        0.927     0.103     1.755     2.071
    10   1 H        0.927     0.109     1.701     2.040
    11   6 C        3.759    -0.132    23.092     6.851
    12   6 C        3.759    -0.131    23.071     6.848
    13   6 C        3.760    -0.127    22.990     6.835
    14   6 C        3.760    -0.128    23.001     6.837
    15   1 H        0.924     0.055     2.257     2.349
    16   1 H        0.925     0.060     2.202     2.321
    17   1 H        0.925     0.055     2.264     2.353
    18   1 H        0.925     0.056     2.241     2.341
    19   1 H        0.925     0.082     1.958     2.188
    20   1 H        0.925     0.055     2.259     2.350
    21   1 H        0.925     0.081     1.971     2.196
    22   1 H        0.925     0.080     1.983     2.202
    23   1 H        0.924     0.059     2.217     2.328
    24   1 H        0.925     0.081     1.970     2.195
    25   1 H        0.925     0.058     2.218     2.329
    26   1 H        0.925     0.061     2.190     2.314
    27   6 C        3.760    -0.129    23.029     6.841
    28   6 C        3.760    -0.131    23.062     6.846
    29   1 H        0.925     0.079     1.985     2.203
    30   1 H        0.925     0.062     2.176     2.307
    31   1 H        0.925     0.060     2.194     2.317
    32   1 H        0.925     0.062     2.180     2.309
    33   1 H        0.925     0.079     1.990     2.206
    34   1 H        0.925     0.060     2.197     2.318

molecular dipole:
                 x           y           z       tot (Debye)
 q only:       -0.091      -0.096      -0.081
   full:       -0.089      -0.087      -0.076       0.371

           -------------------------------------------------
          | TOTAL ENERGY              -39.777754900840 Eh   |
          | GRADIENT NORM               0.006454596781 Eh/α |
          | HOMO-LUMO GAP               4.832433958419 eV   |
           -------------------------------------------------

 * finished run on 2024/02/12 at 14:13:52.429
