                         Program Version 5.0.4 -  RELEASE  -
|  1> # ORCA 5.0.4 - /users/bwb16179/postgrad/2024_02/Carbene_DFT_validation/8.inp # write input file
|  2> # Basic Mode
|  3> #
|  4> ! Opt Freq wB97X Def2-SVP D4 SlowConv TightSCF Defgrid2 Def2/J RIJCOSX CPCM(Water)
|  5>
|  6> %PAL NPROCS 4 END
|  7>
|  8> %maxcore 4500
|  9>
| 10> %geom
| 11> Maxiter 150
| 12> END
| 13>
| 14> * xyzfile 0 1 8_deprot.xyz
| 15>
| 16>                          ****END OF INPUT****
 Total Charge           Charge          ....    0
 Multiplicity           Mult            ....    1
 Number of Electrons    NEL             ....  148
Dispersion correction           -0.009046534
FINAL SINGLE POINT ENERGY      -844.696826772192
Dispersion correction            ... Starting D4
Dispersion correction           -0.009370058
FINAL SINGLE POINT ENERGY      -844.734617518852
Dispersion correction            ... Starting D4
Dispersion correction           -0.009601799
FINAL SINGLE POINT ENERGY      -844.745940498904
Dispersion correction            ... Starting D4
FINAL SINGLE POINT ENERGY      -844.747575131805
FINAL SINGLE POINT ENERGY      -844.748141607468
FINAL SINGLE POINT ENERGY      -844.748216126590
FINAL SINGLE POINT ENERGY      -844.748275721188
FINAL SINGLE POINT ENERGY      -844.748298790273
FINAL SINGLE POINT ENERGY      -844.748312880014
FINAL SINGLE POINT ENERGY      -844.748335459837
FINAL SINGLE POINT ENERGY      -844.749342955546
FINAL SINGLE POINT ENERGY      -844.749485103527
FINAL SINGLE POINT ENERGY      -844.749511074803
FINAL SINGLE POINT ENERGY      -844.749530210397
FINAL SINGLE POINT ENERGY      -844.749539137885
FINAL SINGLE POINT ENERGY      -844.749539706543
FINAL SINGLE POINT ENERGY      -844.749544057424
Dispersion correction           -0.009614185
FINAL SINGLE POINT ENERGY      -844.749550593463
Dispersion correction            ... Starting D4
Dispersion correction           -0.009614209
FINAL SINGLE POINT ENERGY      -844.749554573060
Dispersion correction            ... Starting D4
                    ***********************HURRAY********************

CARTESIAN COORDINATES (ANGSTROEM)
---------------------------------
  C      0.155461   -1.279549    0.197133
  N     -0.920764   -0.453210    0.298326
  C     -0.565633    0.877487    0.490192
  C      0.787376    0.902154    0.511786
  N      1.196783   -0.414608    0.333393
  C     -2.276006   -0.907138    0.198271
  C     -2.848250   -1.040354   -1.075398
  C     -4.173275   -1.481003   -1.154414
  C     -4.895435   -1.776908   -0.000272
  C     -4.303567   -1.638245    1.253461
  C     -2.981357   -1.198477    1.375033
  C     -2.051005   -0.730655   -2.314807
  H     -1.230534   -1.455036   -2.442773
  H     -1.589034    0.267453   -2.257248
  H     -2.687750   -0.769168   -3.209450
  C     -2.327185   -1.046290    2.723058
  H     -1.395161   -1.630950    2.777894
  H     -2.999978   -1.383828    3.523268
  H     -2.059669    0.004019    2.920930
  C      2.570704   -0.818782    0.286263
  C      3.229777   -0.820041   -0.951741
  C      4.571835   -1.212520   -0.977702
  C      5.226014   -1.588566    0.193665
  C      4.548123   -1.581301    1.411144
  C      3.205458   -1.195043    1.478819
  C      2.502972   -0.424088   -2.209693
  H      3.173374   -0.466782   -3.079121
  H      2.097477    0.597390   -2.134392
  H      1.648578   -1.094163   -2.396128
  C      2.453004   -1.193239    2.783448
  H      2.008185   -0.206692    2.988596
  H      3.117291   -1.454742    3.618513
  H      1.624092   -1.918764    2.757657
  H     -4.641168   -1.589792   -2.137654
  H     -5.931200   -2.119770   -0.078603
  H     -4.872351   -1.875144    2.157815
  H      6.276406   -1.891758    0.156948
  H      5.064461   -1.880423    2.328434
  H      5.106280   -1.222678   -1.932554
  H     -1.302862    1.672223    0.592629
  H      1.491984    1.722772    0.637002

 Multiplicity           Mult            ....    1
 Number of Electrons    NEL             ....  148
 Basis Dimension        Dim             ....  394

ORBITAL ENERGIES
----------------

  NO   OCC          E(Eh)            E(eV)
   0   2.0000     -14.459231      -393.4557
   1   2.0000     -14.459200      -393.4548
   2   2.0000     -10.310867      -280.5730
   3   2.0000     -10.310772      -280.5704
   4   2.0000     -10.303629      -280.3760
   5   2.0000     -10.303030      -280.3597
   6   2.0000     -10.289255      -279.9849
   7   2.0000     -10.289101      -279.9807
   8   2.0000     -10.289080      -279.9801
   9   2.0000     -10.289023      -279.9786
  10   2.0000     -10.288925      -279.9759
  11   2.0000     -10.278265      -279.6858
  12   2.0000     -10.278163      -279.6830
  13   2.0000     -10.274136      -279.5735
  14   2.0000     -10.274063      -279.5715
  15   2.0000     -10.274036      -279.5707
  16   2.0000     -10.273945      -279.5683
  17   2.0000     -10.269332      -279.4427
  18   2.0000     -10.269220      -279.4397
  19   2.0000     -10.269195      -279.4390
  20   2.0000     -10.268910      -279.4312
  21   2.0000      -1.159881       -31.5620
  22   2.0000      -1.060222       -28.8501
  23   2.0000      -0.997808       -27.1517
  24   2.0000      -0.976750       -26.5787
  25   2.0000      -0.913073       -24.8460
  26   2.0000      -0.912708       -24.8360
  27   2.0000      -0.906993       -24.6805
  28   2.0000      -0.873160       -23.7599
  29   2.0000      -0.869890       -23.6709
  30   2.0000      -0.829284       -22.5660
  31   2.0000      -0.811039       -22.0695
  32   2.0000      -0.801409       -21.8075
  33   2.0000      -0.800456       -21.7815
  34   2.0000      -0.761755       -20.7284
  35   2.0000      -0.736829       -20.0501
  36   2.0000      -0.698504       -19.0073
  37   2.0000      -0.696973       -18.9656
  38   2.0000      -0.695903       -18.9365
  39   2.0000      -0.678789       -18.4708
  40   2.0000      -0.650220       -17.6934
  41   2.0000      -0.617846       -16.8124
  42   2.0000      -0.612113       -16.6564
  43   2.0000      -0.598396       -16.2832
  44   2.0000      -0.591762       -16.1027
  45   2.0000      -0.562600       -15.3091
  46   2.0000      -0.554599       -15.0914
  47   2.0000      -0.551423       -15.0050
  48   2.0000      -0.536932       -14.6107
  49   2.0000      -0.534726       -14.5506
  50   2.0000      -0.529560       -14.4101
  51   2.0000      -0.525080       -14.2882
  52   2.0000      -0.524304       -14.2670
  53   2.0000      -0.521680       -14.1956
  54   2.0000      -0.518493       -14.1089
  55   2.0000      -0.513850       -13.9826
  56   2.0000      -0.513611       -13.9761
  57   2.0000      -0.509314       -13.8592
  58   2.0000      -0.506701       -13.7880
  59   2.0000      -0.478737       -13.0271
  60   2.0000      -0.476478       -12.9656
  61   2.0000      -0.462137       -12.5754
  62   2.0000      -0.459374       -12.5002
  63   2.0000      -0.456179       -12.4133
  64   2.0000      -0.451722       -12.2920
  65   2.0000      -0.445751       -12.1295
  66   2.0000      -0.444975       -12.1084
  67   2.0000      -0.390327       -10.6213
  68   2.0000      -0.348892        -9.4938
  69   2.0000      -0.343743        -9.3537
  70   2.0000      -0.339272        -9.2321
  71   2.0000      -0.337341        -9.1795
  72   2.0000      -0.333562        -9.0767
  73   2.0000      -0.333013        -9.0617
  74   0.0000       0.061023         1.6605
  75   0.0000       0.067300         1.8313
  76   0.0000       0.072005         1.9594
  77   0.0000       0.073592         2.0025
  78   0.0000       0.106172         2.8891

MULLIKEN ATOMIC CHARGES
-----------------------
   0 C :   -0.137499
   1 N :   -0.214036
   2 C :    0.045137
   3 C :    0.047006
   4 N :   -0.213964
   5 C :    0.046426
   6 C :   -0.100804
   7 C :   -0.092411
   8 C :    0.005791
   9 C :   -0.093208
  10 C :   -0.100838
  11 C :    0.074695
  12 H :    0.053292
  13 H :    0.044618
  14 H :    0.038313
  15 C :    0.074111
  16 H :    0.044984
  17 H :    0.038665
  18 H :    0.053558
  19 C :    0.045608
  20 C :   -0.099779
  21 C :   -0.092901
  22 C :    0.005407
  23 C :   -0.092549
  24 C :   -0.100832
  25 C :    0.074448
  26 H :    0.038382
  27 H :    0.050183
  28 H :    0.047592
  29 C :    0.072839
  30 H :    0.048122
  31 H :    0.038434
  32 H :    0.051423
  33 H :    0.021754
  34 H :    0.035069
  35 H :    0.021713
  36 H :    0.035175
  37 H :    0.021807
  38 H :    0.021883
  39 H :    0.071386
  40 H :    0.071001
Sum of atomic charges:   -0.0000000

LOEWDIN ATOMIC CHARGES
----------------------
   0 C :   -0.286674
   1 N :    0.042944
   2 C :   -0.022141
   3 C :   -0.021975
   4 N :    0.043134
   5 C :   -0.000717
   6 C :   -0.023125
   7 C :   -0.046018
   8 C :   -0.026427
   9 C :   -0.046082
  10 C :   -0.024182
  11 C :   -0.052659
  12 H :    0.039700
  13 H :    0.038529
  14 H :    0.037248
  15 C :   -0.052641
  16 H :    0.037990
  17 H :    0.037593
  18 H :    0.041578
  19 C :   -0.000674
  20 C :   -0.023588
  21 C :   -0.046045
  22 C :   -0.026414
  23 C :   -0.046175
  24 C :   -0.023727
  25 C :   -0.052640
  26 H :    0.037450
  27 H :    0.040215
  28 H :    0.038763
  29 C :   -0.052727
  30 H :    0.039694
  31 H :    0.037351
  32 H :    0.039364
  33 H :    0.037363
  34 H :    0.040665
  35 H :    0.037316
  36 H :    0.040697
  37 H :    0.037348
  38 H :    0.037419
  39 H :    0.046153
  40 H :    0.046117

  Mayer bond orders larger than 0.100000
B(  0-C ,  1-N ) :   1.2247 B(  0-C ,  4-N ) :   1.2249 B(  1-N ,  2-C ) :   1.0967
B(  1-N ,  5-C ) :   0.9500 B(  2-C ,  3-C ) :   1.6192 B(  2-C , 39-H ) :   0.9922
B(  3-C ,  4-N ) :   1.0970 B(  3-C , 40-H ) :   0.9921 B(  4-N , 19-C ) :   0.9513
B(  5-C ,  6-C ) :   1.4307 B(  5-C , 10-C ) :   1.4306 B(  6-C ,  7-C ) :   1.3910
B(  6-C , 11-C ) :   1.0511 B(  7-C ,  8-C ) :   1.3805 B(  7-C , 33-H ) :   0.9956
B(  8-C ,  9-C ) :   1.3806 B(  8-C , 34-H ) :   0.9944 B(  9-C , 10-C ) :   1.3911
B(  9-C , 35-H ) :   0.9956 B( 10-C , 15-C ) :   1.0495 B( 11-C , 12-H ) :   0.9502
B( 11-C , 13-H ) :   0.9554 B( 11-C , 14-H ) :   0.9569 B( 15-C , 16-H ) :   0.9546
B( 15-C , 17-H ) :   0.9579 B( 15-C , 18-H ) :   0.9521 B( 19-C , 20-C ) :   1.4301
B( 19-C , 24-C ) :   1.4315 B( 20-C , 21-C ) :   1.3915 B( 20-C , 25-C ) :   1.0496
B( 21-C , 22-C ) :   1.3806 B( 21-C , 38-H ) :   0.9956 B( 22-C , 23-C ) :   1.3806
B( 22-C , 36-H ) :   0.9943 B( 23-C , 24-C ) :   1.3907 B( 23-C , 37-H ) :   0.9956
B( 24-C , 29-C ) :   1.0492 B( 25-C , 26-H ) :   0.9575 B( 25-C , 27-H ) :   0.9532
B( 25-C , 28-H ) :   0.9528 B( 29-C , 30-H ) :   0.9547 B( 29-C , 31-H ) :   0.9575
B( 29-C , 32-H ) :   0.9523

Dispersion correction           -0.009614583
FINAL SINGLE POINT ENERGY      -844.749557373949

DIPOLE MOMENT
-------------
                                X             Y             Z
Electronic contribution:      0.01429       0.41078       0.07612
Nuclear contribution   :     -0.04853       1.11120       0.12815
                        -----------------------------------------
Total Dipole Moment    :     -0.03425       1.52197       0.20427
                        -----------------------------------------
Magnitude (a.u.)       :      1.53600
Magnitude (Debye)      :      3.90420

Dispersion correction in the Hessian             ... Starting D4

VIBRATIONAL FREQUENCIES
-----------------------

Scaling factor for frequencies =  1.000000000  (already applied!)

   0:         0.00 cm**-1
   1:         0.00 cm**-1
   2:         0.00 cm**-1
   3:         0.00 cm**-1
   4:         0.00 cm**-1
   5:         0.00 cm**-1
   6:         4.51 cm**-1
   7:        20.88 cm**-1
   8:        55.76 cm**-1
   9:        68.98 cm**-1
  10:        84.88 cm**-1
  11:        89.79 cm**-1
  12:       120.86 cm**-1
  13:       127.00 cm**-1
  14:       131.73 cm**-1
  15:       136.32 cm**-1
  16:       148.25 cm**-1
  17:       197.28 cm**-1
  18:       206.50 cm**-1
  19:       236.92 cm**-1
  20:       238.60 cm**-1
  21:       280.26 cm**-1
  22:       306.41 cm**-1
  23:       335.97 cm**-1
  24:       357.20 cm**-1
  25:       360.24 cm**-1
  26:       399.35 cm**-1
  27:       437.02 cm**-1
  28:       483.62 cm**-1
  29:       493.69 cm**-1
  30:       535.19 cm**-1
  31:       537.49 cm**-1
  32:       543.33 cm**-1
  33:       547.24 cm**-1
  34:       579.72 cm**-1
  35:       595.05 cm**-1
  36:       604.48 cm**-1
  37:       628.28 cm**-1
  38:       686.87 cm**-1
  39:       689.58 cm**-1
  40:       759.91 cm**-1
  41:       768.51 cm**-1
  42:       779.67 cm**-1
  43:       786.60 cm**-1
  44:       795.60 cm**-1
  45:       807.26 cm**-1
  46:       810.67 cm**-1
  47:       892.94 cm**-1
  48:       937.85 cm**-1
  49:       941.57 cm**-1
  50:       941.72 cm**-1
  51:       945.46 cm**-1
  52:       963.45 cm**-1
  53:       973.60 cm**-1
  54:      1004.03 cm**-1
  55:      1004.99 cm**-1
  56:      1034.89 cm**-1
  57:      1035.44 cm**-1
  58:      1055.54 cm**-1
  59:      1056.74 cm**-1
  60:      1057.07 cm**-1
  61:      1058.42 cm**-1
  62:      1060.08 cm**-1
  63:      1060.37 cm**-1
  64:      1091.56 cm**-1
  65:      1098.13 cm**-1
  66:      1100.64 cm**-1
  67:      1127.77 cm**-1
  68:      1139.79 cm**-1
  69:      1173.16 cm**-1
  70:      1174.14 cm**-1
  71:      1267.69 cm**-1
  72:      1277.81 cm**-1
  73:      1280.65 cm**-1
  74:      1296.58 cm**-1
  75:      1302.13 cm**-1
  76:      1330.48 cm**-1
  77:      1330.83 cm**-1
  78:      1337.01 cm**-1
  79:      1379.25 cm**-1
  80:      1390.20 cm**-1
  81:      1391.04 cm**-1
  82:      1394.89 cm**-1
  83:      1398.41 cm**-1
  84:      1418.99 cm**-1
  85:      1433.71 cm**-1
  86:      1443.09 cm**-1
  87:      1443.31 cm**-1
  88:      1444.70 cm**-1
  89:      1445.64 cm**-1
  90:      1447.00 cm**-1
  91:      1447.57 cm**-1
  92:      1453.70 cm**-1
  93:      1470.50 cm**-1
  94:      1533.48 cm**-1
  95:      1533.71 cm**-1
  96:      1555.23 cm**-1
  97:      1561.61 cm**-1
  98:      1652.01 cm**-1
  99:      1698.20 cm**-1
 100:      1699.92 cm**-1
 101:      1703.03 cm**-1
 102:      1703.58 cm**-1
 103:      3065.98 cm**-1
 104:      3066.44 cm**-1
 105:      3066.97 cm**-1
 106:      3067.34 cm**-1
 107:      3154.68 cm**-1
 108:      3154.95 cm**-1
 109:      3155.58 cm**-1
 110:      3155.83 cm**-1
 111:      3184.78 cm**-1
 112:      3185.54 cm**-1
 113:      3185.73 cm**-1
 114:      3186.21 cm**-1
 115:      3206.18 cm**-1
 116:      3206.33 cm**-1
 117:      3213.37 cm**-1
 118:      3213.41 cm**-1
 119:      3227.32 cm**-1
 120:      3227.51 cm**-1
 121:      3285.68 cm**-1
 122:      3307.01 cm**-1

IR SPECTRUM
-----------

 Mode   freq       eps      Int      T**2         TX        TY        TZ
       cm**-1   L/(mol*cm) km/mol    a.u.
----------------------------------------------------------------------------
  6:      4.51   0.000000    0.00  0.000000  ( 0.000000  0.000000  0.000000)
  7:     20.88   0.000033    0.17  0.000496  ( 0.002022  0.003552 -0.021896)
  8:     55.76   0.000072    0.37  0.000405  (-0.000883  0.010211  0.017316)
  9:     68.98   0.002567   12.97  0.011614  (-0.000857 -0.015314  0.106671)
 10:     84.88   0.000025    0.13  0.000093  ( 0.000115  0.009602  0.000652)
 11:     89.79   0.000046    0.23  0.000161  ( 0.011948 -0.000442 -0.004254)
 12:    120.86   0.000675    3.41  0.001744  ( 0.001884 -0.040667 -0.009306)
 13:    127.00   0.000436    2.20  0.001071  ( 0.003618 -0.031688 -0.007361)
 14:    131.73   0.000187    0.95  0.000444  (-0.018731 -0.009600 -0.000963)
 15:    136.32   0.000344    1.74  0.000786  (-0.004612  0.013317 -0.024247)
 16:    148.25   0.000058    0.29  0.000121  (-0.000982 -0.010881  0.001303)
 17:    197.28   0.001991   10.06  0.003150  (-0.055741  0.003500 -0.005547)
 18:    206.50   0.000760    3.84  0.001149  (-0.005733 -0.033016 -0.005089)
 19:    236.92   0.000010    0.05  0.000013  (-0.000103 -0.000681 -0.003582)
 20:    238.60   0.000013    0.07  0.000018  (-0.001576  0.001109 -0.003716)
 21:    280.26   0.000891    4.50  0.000992  ( 0.031413  0.001129  0.001962)
 22:    306.41   0.003411   17.24  0.003474  (-0.000927 -0.009025  0.058236)
 23:    335.97   0.001673    8.45  0.001554  ( 0.001046 -0.038886 -0.006384)
 24:    357.20   0.001157    5.84  0.001010  (-0.000346 -0.031599 -0.003435)
 25:    360.24   0.000094    0.47  0.000081  ( 0.001479 -0.008855 -0.000724)
 26:    399.35   0.000652    3.30  0.000510  ( 0.022534 -0.000419 -0.001287)
 27:    437.02   0.000027    0.13  0.000019  (-0.004257 -0.000506  0.000809)
 28:    483.62   0.000155    0.78  0.000100  (-0.000284  0.001483 -0.009881)
 29:    493.69   0.000003    0.01  0.000002  ( 0.000987  0.000284 -0.000896)
 30:    535.19   0.000028    0.14  0.000016  ( 0.000306  0.000910 -0.003911)
 31:    537.49   0.000016    0.08  0.000009  (-0.001157 -0.000262  0.002782)
 32:    543.33   0.000094    0.47  0.000054  ( 0.000756  0.000185 -0.007299)
 33:    547.24   0.000002    0.01  0.000001  (-0.000128 -0.000932  0.000184)
 34:    579.72   0.000327    1.65  0.000176  (-0.000155  0.013098  0.002073)
 35:    595.05   0.000042    0.21  0.000022  (-0.000034 -0.004623 -0.000812)
 36:    604.48   0.000031    0.16  0.000016  ( 0.003781 -0.001244 -0.000322)
 37:    628.28   0.002109   10.66  0.001048  ( 0.032368 -0.000086 -0.000069)
 38:    686.87   0.000014    0.07  0.000006  ( 0.000742 -0.001828  0.001566)
 39:    689.58   0.002046   10.34  0.000926  ( 0.003333  0.003527 -0.030042)
 40:    759.91   0.014589   73.73  0.005991  ( 0.000825  0.010906 -0.076627)
 41:    768.51   0.000059    0.30  0.000024  ( 0.000571 -0.004761  0.000989)
 42:    779.67   0.001095    5.53  0.000438  ( 0.020880  0.000509  0.001375)
 43:    786.60   0.000330    1.67  0.000131  ( 0.000127  0.011083  0.002808)
 44:    795.60   0.001332    6.73  0.000522  (-0.022615 -0.003089  0.001222)
 45:    807.26   0.013627   68.86  0.005268  ( 0.019434  0.069253  0.009698)
 46:    810.67   0.008993   45.45  0.003462  ( 0.030362 -0.050394 -0.000587)
 47:    892.94   0.000004    0.02  0.000001  ( 0.000723 -0.000200 -0.000854)
 48:    937.85   0.000192    0.97  0.000064  ( 0.000012  0.000144 -0.007990)
 49:    941.57   0.001538    7.77  0.000510  ( 0.001252  0.001573 -0.022491)
 50:    941.72   0.000654    3.31  0.000217  ( 0.000321 -0.003307  0.014345)
 51:    945.46   0.000016    0.08  0.000005  (-0.001467 -0.000259 -0.001742)
 52:    963.45   0.009218   46.59  0.002986  ( 0.054614  0.001297  0.001185)
 53:    973.60   0.000945    4.78  0.000303  ( 0.001049 -0.017178 -0.002620)
 54:   1004.03   0.001533    7.74  0.000476  ( 0.021785 -0.001311 -0.000083)
 55:   1004.99   0.000566    2.86  0.000176  (-0.012201 -0.005070 -0.001132)
 56:   1034.89   0.000097    0.49  0.000029  ( 0.001375 -0.003633 -0.003746)
 57:   1035.44   0.000373    1.88  0.000112  (-0.000208  0.010378  0.002158)
 58:   1055.54   0.000102    0.51  0.000030  (-0.000955 -0.005391  0.000215)
 59:   1056.74   0.000895    4.52  0.000264  (-0.007206 -0.014449 -0.001868)
 60:   1057.07   0.000816    4.12  0.000241  ( 0.003438  0.015135  0.000198)
 61:   1058.42   0.003442   17.40  0.001015  (-0.006521  0.030539  0.006307)
 62:   1060.08   0.000419    2.12  0.000123  (-0.000777 -0.000237  0.011071)
 63:   1060.37   0.000461    2.33  0.000136  ( 0.001260 -0.001148 -0.011517)
 64:   1091.56   0.005383   27.21  0.001539  (-0.001457  0.038734  0.006048)
 65:   1098.13   0.000250    1.26  0.000071  ( 0.004513 -0.007061 -0.000830)
 66:   1100.64   0.000172    0.87  0.000049  (-0.002078  0.006519  0.001422)
 67:   1127.77   0.007259   36.68  0.002009  ( 0.044808  0.000549  0.000682)
 68:   1139.79   0.000406    2.05  0.000111  (-0.007724 -0.007066 -0.001283)
 69:   1173.16   0.000581    2.94  0.000155  ( 0.000191 -0.001972  0.012278)
 70:   1174.14   0.000626    3.16  0.000166  ( 0.000387  0.001138 -0.012839)
 71:   1267.69   0.009353   47.27  0.002302  ( 0.047961  0.001189  0.000910)
 72:   1277.81   0.000106    0.54  0.000026  (-0.000720  0.000797 -0.004983)
 73:   1280.65   0.000086    0.43  0.000021  (-0.002015  0.001040 -0.003973)
 74:   1296.58   0.000022    0.11  0.000005  (-0.001714  0.001513  0.000274)
 75:   1302.13   0.001380    6.98  0.000331  ( 0.018172  0.000442  0.000627)
 76:   1330.48   0.000822    4.15  0.000193  ( 0.003608 -0.001105  0.013360)
 77:   1330.83   0.002038   10.30  0.000478  ( 0.001968 -0.002908  0.021578)
 78:   1337.01   0.002468   12.47  0.000576  (-0.023563 -0.001051  0.004456)
 79:   1379.25   0.001088    5.50  0.000246  (-0.000579  0.015126  0.004130)
 80:   1390.20   0.000018    0.09  0.000004  (-0.000031  0.001282 -0.001562)
 81:   1391.04   0.000046    0.23  0.000010  (-0.000753 -0.001509 -0.002741)
 82:   1394.89   0.000056    0.28  0.000013  (-0.003224 -0.000932 -0.001127)
 83:   1398.41   0.001990   10.06  0.000444  ( 0.021019  0.001495 -0.000279)
 84:   1418.99   0.000341    1.72  0.000075  (-0.000676 -0.008543 -0.001218)
 85:   1433.71   0.008992   45.44  0.001957  ( 0.044173 -0.002015  0.001364)
 86:   1443.09   0.004903   24.78  0.001060  ( 0.007860 -0.030614 -0.007833)
 87:   1443.31   0.002884   14.57  0.000624  ( 0.019614  0.011111 -0.010742)
 88:   1444.70   0.002545   12.86  0.000550  ( 0.002921  0.022483  0.005977)
 89:   1445.64   0.000272    1.37  0.000059  ( 0.007417 -0.001804 -0.000668)
 90:   1447.00   0.003754   18.97  0.000810  (-0.004311 -0.027482 -0.005979)
 91:   1447.57   0.002881   14.56  0.000621  ( 0.009102 -0.008453  0.021604)
 92:   1453.70   0.000107    0.54  0.000023  (-0.001107  0.004640  0.000400)
 93:   1470.50   0.002704   13.67  0.000574  ( 0.023953  0.000085  0.000313)
 94:   1533.48   0.000382    1.93  0.000078  (-0.001193  0.000793  0.008700)
 95:   1533.71   0.010191   51.50  0.002073  (-0.000932 -0.005496  0.045193)
 96:   1555.23   0.058155  293.89  0.011669  ( 0.108005  0.001194  0.001574)
 97:   1561.61   0.002434   12.30  0.000486  (-0.004288 -0.021360 -0.003424)
 98:   1652.01   0.000315    1.59  0.000060  ( 0.000103  0.007697  0.000583)
 99:   1698.20   0.000068    0.34  0.000013  (-0.003532 -0.000167 -0.000040)
100:   1699.92   0.000021    0.11  0.000004  ( 0.000252 -0.001908 -0.000392)
101:   1703.03   0.000385    1.95  0.000071  ( 0.000711 -0.000694 -0.008342)
102:   1703.58   0.004792   24.22  0.000878  ( 0.001023  0.003415 -0.029414)
103:   3065.98   0.009656   48.80  0.000983  ( 0.006385  0.004879 -0.030302)
104:   3066.44   0.002797   14.14  0.000285  ( 0.000352  0.002254  0.016717)
105:   3066.97   0.000526    2.66  0.000053  (-0.004553 -0.005617  0.001100)
106:   3067.34   0.003729   18.85  0.000379  (-0.017500  0.002458 -0.008191)
107:   3154.68   0.002298   11.61  0.000227  (-0.002257  0.014868 -0.001093)
108:   3154.95   0.002671   13.50  0.000264  ( 0.000094  0.016080  0.002373)
109:   3155.58   0.000259    1.31  0.000026  (-0.004608  0.000884 -0.001903)
110:   3155.83   0.000873    4.41  0.000086  ( 0.002846  0.008759  0.001217)
111:   3184.78   0.003420   17.28  0.000335  ( 0.011368  0.002781  0.014075)
112:   3185.54   0.003315   16.75  0.000325  (-0.009348 -0.000563  0.015396)
113:   3185.73   0.002946   14.89  0.000289  ( 0.013983 -0.006113  0.007466)
114:   3186.21   0.002932   14.82  0.000287  ( 0.014074  0.004334 -0.008388)
115:   3206.18   0.000001    0.01  0.000000  (-0.000148  0.000246 -0.000201)
116:   3206.33   0.000001    0.01  0.000000  (-0.000117  0.000152 -0.000263)
117:   3213.37   0.002840   14.35  0.000276  (-0.000324 -0.002503  0.016414)
118:   3213.41   0.002917   14.74  0.000283  (-0.000711 -0.001169  0.016775)
119:   3227.32   0.003295   16.65  0.000319  ( 0.017347 -0.004183 -0.000461)
120:   3227.51   0.002766   13.98  0.000267  (-0.015394 -0.005328 -0.001453)
121:   3285.68   0.003270   16.52  0.000311  (-0.017614 -0.000354 -0.000440)
122:   3307.01   0.000739    3.73  0.000070  ( 0.000120  0.008273  0.001133)

--------------------------
THERMOCHEMISTRY AT 298.15K
--------------------------

Temperature         ... 298.15 K
Pressure            ... 1.00 atm
Total Mass          ... 276.38 AMU

Throughout the following assumptions are being made:
  (1) The electronic state is orbitally nondegenerate
  (2) There are no thermally accessible electronically excited states
  (3) Hindered rotations indicated by low frequency modes are not
      treated as such but are treated as vibrations and this may
      cause some error
  (4) All equations used are the standard statistical mechanics
      equations for an ideal gas
  (5) All vibrations are strictly harmonic

freq.       4.51  E(vib)   ...       0.59
freq.      20.88  E(vib)   ...       0.56
freq.      55.76  E(vib)   ...       0.52
freq.      68.98  E(vib)   ...       0.50
freq.      84.88  E(vib)   ...       0.48
freq.      89.79  E(vib)   ...       0.47
freq.     120.86  E(vib)   ...       0.44
freq.     127.00  E(vib)   ...       0.43
freq.     131.73  E(vib)   ...       0.42
freq.     136.32  E(vib)   ...       0.42
freq.     148.25  E(vib)   ...       0.41
freq.     197.28  E(vib)   ...       0.35
freq.     206.50  E(vib)   ...       0.35
freq.     236.92  E(vib)   ...       0.32
freq.     238.60  E(vib)   ...       0.32
freq.     280.26  E(vib)   ...       0.28
freq.     306.41  E(vib)   ...       0.26
freq.     335.97  E(vib)   ...       0.24
freq.     357.20  E(vib)   ...       0.22
freq.     360.24  E(vib)   ...       0.22
freq.     399.35  E(vib)   ...       0.19
freq.     437.02  E(vib)   ...       0.17
freq.     483.62  E(vib)   ...       0.15
freq.     493.69  E(vib)   ...       0.14
freq.     535.19  E(vib)   ...       0.13
freq.     537.49  E(vib)   ...       0.12
freq.     543.33  E(vib)   ...       0.12
freq.     547.24  E(vib)   ...       0.12
freq.     579.72  E(vib)   ...       0.11
freq.     595.05  E(vib)   ...       0.10
freq.     604.48  E(vib)   ...       0.10
freq.     628.28  E(vib)   ...       0.09
freq.     686.87  E(vib)   ...       0.07
freq.     689.58  E(vib)   ...       0.07
freq.     759.91  E(vib)   ...       0.06
freq.     768.51  E(vib)   ...       0.06
freq.     779.67  E(vib)   ...       0.05
freq.     786.60  E(vib)   ...       0.05
freq.     795.60  E(vib)   ...       0.05
freq.     807.26  E(vib)   ...       0.05
freq.     810.67  E(vib)   ...       0.05
freq.     892.94  E(vib)   ...       0.03
freq.     937.85  E(vib)   ...       0.03
freq.     941.57  E(vib)   ...       0.03
freq.     941.72  E(vib)   ...       0.03
freq.     945.46  E(vib)   ...       0.03
freq.     963.45  E(vib)   ...       0.03
freq.     973.60  E(vib)   ...       0.03
freq.    1004.03  E(vib)   ...       0.02
freq.    1004.99  E(vib)   ...       0.02
freq.    1034.89  E(vib)   ...       0.02
freq.    1035.44  E(vib)   ...       0.02
freq.    1055.54  E(vib)   ...       0.02
freq.    1056.74  E(vib)   ...       0.02
freq.    1057.07  E(vib)   ...       0.02
freq.    1058.42  E(vib)   ...       0.02
freq.    1060.08  E(vib)   ...       0.02
freq.    1060.37  E(vib)   ...       0.02
freq.    1091.56  E(vib)   ...       0.02
freq.    1098.13  E(vib)   ...       0.02
freq.    1100.64  E(vib)   ...       0.02
freq.    1127.77  E(vib)   ...       0.01
freq.    1139.79  E(vib)   ...       0.01
freq.    1173.16  E(vib)   ...       0.01
freq.    1174.14  E(vib)   ...       0.01
freq.    1267.69  E(vib)   ...       0.01
freq.    1277.81  E(vib)   ...       0.01
freq.    1280.65  E(vib)   ...       0.01
freq.    1296.58  E(vib)   ...       0.01
freq.    1302.13  E(vib)   ...       0.01
freq.    1330.48  E(vib)   ...       0.01
freq.    1330.83  E(vib)   ...       0.01
freq.    1337.01  E(vib)   ...       0.01
freq.    1379.25  E(vib)   ...       0.01
freq.    1390.20  E(vib)   ...       0.00
freq.    1391.04  E(vib)   ...       0.00
freq.    1394.89  E(vib)   ...       0.00
freq.    1398.41  E(vib)   ...       0.00
freq.    1418.99  E(vib)   ...       0.00
freq.    1433.71  E(vib)   ...       0.00
freq.    1443.09  E(vib)   ...       0.00
freq.    1443.31  E(vib)   ...       0.00
freq.    1444.70  E(vib)   ...       0.00
freq.    1445.64  E(vib)   ...       0.00
freq.    1447.00  E(vib)   ...       0.00
freq.    1447.57  E(vib)   ...       0.00
freq.    1453.70  E(vib)   ...       0.00
freq.    1470.50  E(vib)   ...       0.00
freq.    1533.48  E(vib)   ...       0.00
freq.    1533.71  E(vib)   ...       0.00
freq.    1555.23  E(vib)   ...       0.00
freq.    1561.61  E(vib)   ...       0.00
freq.    1652.01  E(vib)   ...       0.00
freq.    1698.20  E(vib)   ...       0.00
freq.    1699.92  E(vib)   ...       0.00
freq.    1703.03  E(vib)   ...       0.00
freq.    1703.58  E(vib)   ...       0.00
freq.    3065.98  E(vib)   ...       0.00
freq.    3066.44  E(vib)   ...       0.00
freq.    3066.97  E(vib)   ...       0.00
freq.    3067.34  E(vib)   ...       0.00
freq.    3154.68  E(vib)   ...       0.00
freq.    3154.95  E(vib)   ...       0.00
freq.    3155.58  E(vib)   ...       0.00
freq.    3155.83  E(vib)   ...       0.00
freq.    3184.78  E(vib)   ...       0.00
freq.    3185.54  E(vib)   ...       0.00
freq.    3185.73  E(vib)   ...       0.00
freq.    3186.21  E(vib)   ...       0.00
freq.    3206.18  E(vib)   ...       0.00
freq.    3206.33  E(vib)   ...       0.00
freq.    3213.37  E(vib)   ...       0.00
freq.    3213.41  E(vib)   ...       0.00
freq.    3227.32  E(vib)   ...       0.00
freq.    3227.51  E(vib)   ...       0.00
freq.    3285.68  E(vib)   ...       0.00
freq.    3307.01  E(vib)   ...       0.00

------------
INNER ENERGY
------------

The inner energy is: U= E(el) + E(ZPE) + E(vib) + E(rot) + E(trans)
    E(el)   - is the total energy from the electronic structure calculation
              = E(kin-el) + E(nuc-el) + E(el-el) + E(nuc-nuc)
    E(ZPE)  - the the zero temperature vibrational energy from the frequency calculation
    E(vib)  - the the finite temperature correction to E(ZPE) due to population
              of excited vibrational states
    E(rot)  - is the rotational thermal energy
    E(trans)- is the translational thermal energy

Summary of contributions to the inner energy U:
Electronic energy                ...   -844.74955737 Eh
Zero point energy                ...      0.34557429 Eh     216.85 kcal/mol
Thermal vibrational correction   ...      0.01669117 Eh      10.47 kcal/mol
Thermal rotational correction    ...      0.00141627 Eh       0.89 kcal/mol
Thermal translational correction ...      0.00141627 Eh       0.89 kcal/mol
-----------------------------------------------------------------------
Total thermal energy                   -844.38445936 Eh

Summary of corrections to the electronic energy:
(perhaps to be used in another calculation)
Total thermal correction                  0.01952372 Eh      12.25 kcal/mol

Rotational constants in cm-1:     0.023619     0.005964     0.005189

                             ****ORCA TERMINATED NORMALLY****
TOTAL RUN TIME: 0 days 2 hours 1 minutes 21 seconds 90 msec
