                         Program Version 5.0.4 -  RELEASE  -
|  1> # ORCA 5.0.4 - /users/bwb16179/postgrad/2024_06/pKa_Reviewer_Comments/Gas_Z=1/7_prot.inp # write input file
|  2> # Basic Mode
|  3> #
|  4> ! Opt Freq wB97X Def2-TZVP D4 SlowConv TightSCF Defgrid2 Def2/J RIJCOSX
|  5>
|  6> %PAL NPROCS 4 END
|  7>
|  8> %maxcore 4500
|  9>
| 10> %geom
| 11> Maxiter 150
| 12> END
| 13>
| 14> * xyzfile 1 1 7_prot.xyz
| 15>
| 16>                          ****END OF INPUT****
 Total Charge           Charge          ....    1
 Multiplicity           Mult            ....    1
 Number of Electrons    NEL             ....  116
Dispersion correction           -0.005728132
FINAL SINGLE POINT ENERGY      -688.764638193062
Dispersion correction            ... Starting D4
Dispersion correction           -0.005750477
FINAL SINGLE POINT ENERGY      -688.766409357741
Dispersion correction            ... Starting D4
Dispersion correction           -0.005752342
FINAL SINGLE POINT ENERGY      -688.766425828643
Dispersion correction            ... Starting D4
                    ***********************HURRAY********************

CARTESIAN COORDINATES (ANGSTROEM)
---------------------------------
  C      0.002212    0.675977   -1.857802
  C     -0.002212   -0.675977   -1.857802
  H     -0.008303    1.384654   -2.668175
  H      0.008305   -1.384653   -2.668176
  C      0.000153    2.439364   -0.071322
  C     -0.940124    2.827823    0.867327
  C      0.940810    3.322481   -0.573703
  C     -0.925698    4.136033    1.323310
  H     -1.686387    2.126864    1.222961
  C      0.934911    4.630529   -0.118879
  H      1.677413    2.990560   -1.295934
  C      0.007108    5.035450    0.829719
  H     -1.655165    4.454453    2.056849
  H      1.665455    5.332513   -0.499939
  H      0.010098    6.057915    1.185398
  C     -0.000156   -2.439364   -0.071323
  C      0.940122   -2.827821    0.867327
  C     -0.940811   -3.322482   -0.573702
  C      0.925700   -4.136032    1.323309
  H      1.686384   -2.126861    1.222961
  C     -0.934908   -4.630531   -0.118881
  H     -1.677414   -2.990563   -1.295934
  C     -0.007105   -5.035451    0.829718
  H      1.655167   -4.454450    2.056849
  H     -1.665451   -5.332517   -0.499940
  H     -0.010092   -6.057915    1.185398
  C     -0.000004   -0.000000    0.232018
  H     -0.000005   -0.000000    1.310164
  N      0.003010    1.079851   -0.541156
  N     -0.003015   -1.079851   -0.541156

 Multiplicity           Mult            ....    1
 Number of Electrons    NEL             ....  116
 Basis Dimension        Dim             ....  605

ORBITAL ENERGIES
----------------

  NO   OCC          E(Eh)            E(eV)
   0   2.0000     -14.647165      -398.5696
   1   2.0000     -14.647140      -398.5689
   2   2.0000     -10.513279      -286.0809
   3   2.0000     -10.462540      -284.7002
   4   2.0000     -10.461798      -284.6800
   5   2.0000     -10.449891      -284.3560
   6   2.0000     -10.449885      -284.3558
   7   2.0000     -10.400625      -283.0154
   8   2.0000     -10.400625      -283.0154
   9   2.0000     -10.399596      -282.9874
  10   2.0000     -10.399595      -282.9874
  11   2.0000     -10.388996      -282.6989
  12   2.0000     -10.388995      -282.6989
  13   2.0000     -10.388762      -282.6926
  14   2.0000     -10.388762      -282.6926
  15   2.0000     -10.385337      -282.5994
  16   2.0000     -10.385337      -282.5994
  17   2.0000      -1.371056       -37.3083
  18   2.0000      -1.253662       -34.1139
  19   2.0000      -1.142545       -31.0902
  20   2.0000      -1.122988       -30.5581
  21   2.0000      -1.081621       -29.4324
  22   2.0000      -1.044800       -28.4305
  23   2.0000      -1.018258       -27.7082
  24   2.0000      -1.015683       -27.6381
  25   2.0000      -1.008313       -27.4376
  26   2.0000      -0.935316       -25.4512
  27   2.0000      -0.929190       -25.2845
  28   2.0000      -0.882327       -24.0093
  29   2.0000      -0.871215       -23.7070
  30   2.0000      -0.864258       -23.5176
  31   2.0000      -0.858415       -23.3587
  32   2.0000      -0.821729       -22.3604
  33   2.0000      -0.789018       -21.4703
  34   2.0000      -0.768601       -20.9147
  35   2.0000      -0.752245       -20.4696
  36   2.0000      -0.737322       -20.0636
  37   2.0000      -0.736583       -20.0435
  38   2.0000      -0.722126       -19.6500
  39   2.0000      -0.716530       -19.4978
  40   2.0000      -0.710013       -19.3204
  41   2.0000      -0.689156       -18.7529
  42   2.0000      -0.676588       -18.4109
  43   2.0000      -0.676336       -18.4040
  44   2.0000      -0.667698       -18.1690
  45   2.0000      -0.666121       -18.1261
  46   2.0000      -0.640088       -17.4177
  47   2.0000      -0.623881       -16.9767
  48   2.0000      -0.596859       -16.2414
  49   2.0000      -0.594037       -16.1646
  50   2.0000      -0.591646       -16.0995
  51   2.0000      -0.582401       -15.8479
  52   2.0000      -0.572038       -15.5659
  53   2.0000      -0.523022       -14.2322
  54   2.0000      -0.484831       -13.1929
  55   2.0000      -0.483258       -13.1501
  56   2.0000      -0.483115       -13.1462
  57   2.0000      -0.475676       -12.9438
  58   0.0000      -0.104742        -2.8502
  59   0.0000      -0.073872        -2.0102
  60   0.0000      -0.066280        -1.8036
  61   0.0000      -0.065566        -1.7841
  62   0.0000      -0.048983        -1.3329

MULLIKEN ATOMIC CHARGES
-----------------------
   0 C :   -0.093100
   1 C :   -0.093076
   2 H :    0.236633
   3 H :    0.236633
   4 C :    0.235234
   5 C :   -0.292748
   6 C :   -0.291662
   7 C :   -0.076142
   8 H :    0.177248
   9 C :   -0.076721
  10 H :    0.179672
  11 C :   -0.133311
  12 H :    0.166694
  13 H :    0.167091
  14 H :    0.167685
  15 C :    0.235290
  16 C :   -0.292802
  17 C :   -0.291725
  18 C :   -0.076099
  19 H :    0.177258
  20 C :   -0.076672
  21 H :    0.179626
  22 C :   -0.133357
  23 H :    0.166707
  24 H :    0.167097
  25 H :    0.167685
  26 C :    0.090346
  27 H :    0.266155
  28 N :   -0.044802
  29 N :   -0.044836
Sum of atomic charges:    1.0000000

LOEWDIN ATOMIC CHARGES
----------------------
   0 C :   -0.131390
   1 C :   -0.131390
   2 H :    0.163739
   3 H :    0.163739
   4 C :   -0.160763
   5 C :   -0.103123
   6 C :   -0.099655
   7 C :   -0.105398
   8 H :    0.156919
   9 C :   -0.104305
  10 H :    0.158431
  11 C :   -0.101035
  12 H :    0.159008
  13 H :    0.159230
  14 H :    0.159041
  15 C :   -0.160763
  16 C :   -0.103123
  17 C :   -0.099655
  18 C :   -0.105397
  19 H :    0.156920
  20 C :   -0.104304
  21 H :    0.158431
  22 C :   -0.101036
  23 H :    0.159008
  24 H :    0.159230
  25 H :    0.159041
  26 C :   -0.120408
  27 H :    0.170045
  28 N :    0.324481
  29 N :    0.324481

  Mayer bond orders larger than 0.100000
B(  0-C ,  1-C ) :   1.7190 B(  0-C ,  2-H ) :   0.9186 B(  0-C , 28-N ) :   1.1411
B(  1-C ,  3-H ) :   0.9186 B(  1-C , 29-N ) :   1.1410 B(  4-C ,  5-C ) :   1.3609
B(  4-C ,  6-C ) :   1.3695 B(  4-C , 28-N ) :   0.8932 B(  5-C ,  6-C ) :   0.1048
B(  5-C ,  7-C ) :   1.4667 B(  5-C ,  8-H ) :   0.9488 B(  6-C ,  9-C ) :   1.4722
B(  6-C , 10-H ) :   0.9499 B(  7-C , 11-C ) :   1.4177 B(  7-C , 12-H ) :   0.9618
B(  9-C , 11-C ) :   1.4118 B(  9-C , 13-H ) :   0.9624 B( 11-C , 14-H ) :   0.9613
B( 15-C , 16-C ) :   1.3609 B( 15-C , 17-C ) :   1.3695 B( 15-C , 29-N ) :   0.8932
B( 16-C , 17-C ) :   0.1048 B( 16-C , 18-C ) :   1.4668 B( 16-C , 19-H ) :   0.9488
B( 17-C , 20-C ) :   1.4721 B( 17-C , 21-H ) :   0.9500 B( 18-C , 22-C ) :   1.4177
B( 18-C , 23-H ) :   0.9618 B( 20-C , 22-C ) :   1.4118 B( 20-C , 24-H ) :   0.9624
B( 22-C , 25-H ) :   0.9613 B( 26-C , 27-H ) :   0.9031 B( 26-C , 28-N ) :   1.3630
B( 26-C , 29-N ) :   1.3630

Dispersion correction           -0.005752190
FINAL SINGLE POINT ENERGY      -688.766426545313

DIPOLE MOMENT
-------------
                                X             Y             Z
Electronic contribution:     -0.00001      -0.00000      -1.64688
Nuclear contribution   :      0.00001       0.00000       1.30669
                        -----------------------------------------
Total Dipole Moment    :     -0.00000      -0.00000      -0.34019
                        -----------------------------------------
Magnitude (a.u.)       :      0.34019
Magnitude (Debye)      :      0.86470

Dispersion correction in the Hessian             ... Starting D4

VIBRATIONAL FREQUENCIES
-----------------------

Scaling factor for frequencies =  1.000000000  (already applied!)

   0:         0.00 cm**-1
   1:         0.00 cm**-1
   2:         0.00 cm**-1
   3:         0.00 cm**-1
   4:         0.00 cm**-1
   5:         0.00 cm**-1
   6:        27.90 cm**-1
   7:        35.94 cm**-1
   8:        61.18 cm**-1
   9:        84.26 cm**-1
  10:       126.75 cm**-1
  11:       140.98 cm**-1
  12:       250.20 cm**-1
  13:       305.63 cm**-1
  14:       316.17 cm**-1
  15:       406.18 cm**-1
  16:       422.17 cm**-1
  17:       422.48 cm**-1
  18:       431.67 cm**-1
  19:       441.93 cm**-1
  20:       533.22 cm**-1
  21:       568.47 cm**-1
  22:       628.59 cm**-1
  23:       628.93 cm**-1
  24:       679.23 cm**-1
  25:       684.52 cm**-1
  26:       694.87 cm**-1
  27:       720.98 cm**-1
  28:       721.23 cm**-1
  29:       721.64 cm**-1
  30:       788.51 cm**-1
  31:       800.63 cm**-1
  32:       802.80 cm**-1
  33:       872.33 cm**-1
  34:       872.69 cm**-1
  35:       898.81 cm**-1
  36:       924.36 cm**-1
  37:       966.86 cm**-1
  38:       968.01 cm**-1
  39:       985.07 cm**-1
  40:       994.87 cm**-1
  41:      1023.34 cm**-1
  42:      1023.46 cm**-1
  43:      1032.54 cm**-1
  44:      1033.73 cm**-1
  45:      1056.36 cm**-1
  46:      1056.39 cm**-1
  47:      1064.69 cm**-1
  48:      1065.19 cm**-1
  49:      1097.45 cm**-1
  50:      1120.76 cm**-1
  51:      1122.74 cm**-1
  52:      1129.00 cm**-1
  53:      1144.82 cm**-1
  54:      1191.23 cm**-1
  55:      1191.34 cm**-1
  56:      1209.90 cm**-1
  57:      1210.79 cm**-1
  58:      1267.84 cm**-1
  59:      1286.12 cm**-1
  60:      1318.60 cm**-1
  61:      1327.61 cm**-1
  62:      1357.39 cm**-1
  63:      1362.17 cm**-1
  64:      1392.45 cm**-1
  65:      1417.07 cm**-1
  66:      1456.26 cm**-1
  67:      1517.85 cm**-1
  68:      1518.40 cm**-1
  69:      1549.31 cm**-1
  70:      1557.91 cm**-1
  71:      1628.10 cm**-1
  72:      1630.12 cm**-1
  73:      1686.16 cm**-1
  74:      1687.09 cm**-1
  75:      1687.70 cm**-1
  76:      1690.24 cm**-1
  77:      3214.90 cm**-1
  78:      3214.95 cm**-1
  79:      3217.53 cm**-1
  80:      3217.56 cm**-1
  81:      3227.67 cm**-1
  82:      3227.67 cm**-1
  83:      3237.14 cm**-1
  84:      3237.15 cm**-1
  85:      3245.46 cm**-1
  86:      3245.46 cm**-1
  87:      3304.54 cm**-1
  88:      3306.65 cm**-1
  89:      3324.33 cm**-1

IR SPECTRUM
-----------

 Mode   freq       eps      Int      T**2         TX        TY        TZ
       cm**-1   L/(mol*cm) km/mol    a.u.
----------------------------------------------------------------------------
  6:     27.90   0.000001    0.00  0.000010  ( 0.000001  0.000000 -0.003093)
  7:     35.94   0.000014    0.07  0.000124  ( 0.011088 -0.000860  0.000000)
  8:     61.18   0.000018    0.09  0.000091  (-0.000000  0.000000  0.009556)
  9:     84.26   0.000063    0.32  0.000233  ( 0.011258 -0.010323 -0.000001)
 10:    126.75   0.000070    0.35  0.000173  ( 0.000001 -0.000000  0.013148)
 11:    140.98   0.000097    0.49  0.000216  (-0.014644  0.001137  0.000000)
 12:    250.20   0.000057    0.29  0.000071  (-0.000000  0.000000 -0.008437)
 13:    305.63   0.000184    0.93  0.000188  ( 0.000000 -0.000000  0.013721)
 14:    316.17   0.000020    0.10  0.000019  ( 0.004080  0.001615 -0.000000)
 15:    406.18   0.000146    0.74  0.000113  ( 0.006180 -0.008623 -0.000000)
 16:    422.17   0.000005    0.02  0.000004  (-0.000002  0.000003  0.001875)
 17:    422.48   0.000023    0.12  0.000017  ( 0.001838 -0.003722  0.000001)
 18:    431.67   0.000003    0.01  0.000002  (-0.000000 -0.000000  0.001370)
 19:    441.93   0.000338    1.71  0.000239  (-0.012895 -0.008506 -0.000000)
 20:    533.22   0.002855   14.43  0.001671  (-0.000000  0.000000  0.040874)
 21:    568.47   0.001908    9.64  0.001047  ( 0.028246 -0.015795  0.000000)
 22:    628.59   0.000170    0.86  0.000085  ( 0.008734  0.002873  0.000000)
 23:    628.93   0.000004    0.02  0.000002  ( 0.000001  0.000000 -0.001354)
 24:    679.23   0.000798    4.03  0.000367  ( 0.000000 -0.000000 -0.019152)
 25:    684.52   0.002315   11.70  0.001055  ( 0.031956  0.005836 -0.000000)
 26:    694.87   0.000082    0.42  0.000037  ( 0.000000  0.000000  0.006086)
 27:    720.98   0.003488   17.63  0.001510  ( 0.014622 -0.036001 -0.000077)
 28:    721.23   0.006766   34.19  0.002928  ( 0.000082  0.000044 -0.054107)
 29:    721.64   0.006046   30.55  0.002614  (-0.050976  0.003995 -0.000110)
 30:    788.51   0.008245   41.67  0.003263  ( 0.057088 -0.002042  0.000001)
 31:    800.63   0.009007   45.52  0.003511  ( 0.000022 -0.000011 -0.059252)
 32:    802.80   0.008423   42.57  0.003274  (-0.051382  0.025182 -0.000023)
 33:    872.33   0.000129    0.65  0.000046  (-0.003016 -0.006094  0.000009)
 34:    872.69   0.000054    0.27  0.000019  ( 0.000007  0.000013  0.004408)
 35:    898.81   0.003358   16.97  0.001166  (-0.034146  0.000172 -0.000000)
 36:    924.36   0.000000    0.00  0.000000  ( 0.000000 -0.000000 -0.000355)
 37:    966.86   0.000412    2.08  0.000133  (-0.000006  0.000012  0.011526)
 38:    968.01   0.000351    1.78  0.000113  ( 0.004840 -0.009479  0.000016)
 39:    985.07   0.000730    3.69  0.000231  ( 0.001691  0.015114  0.000000)
 40:    994.87   0.000018    0.09  0.000006  ( 0.000000  0.000000 -0.002402)
 41:   1023.34   0.000320    1.62  0.000098  (-0.000498  0.009866 -0.000025)
 42:   1023.46   0.000012    0.06  0.000004  (-0.000007  0.000133  0.001899)
 43:   1032.54   0.002450   12.38  0.000741  ( 0.000343  0.027212 -0.000001)
 44:   1033.73   0.000131    0.66  0.000039  (-0.000000  0.000003  0.006282)
 45:   1056.36   0.000001    0.01  0.000000  (-0.000004 -0.000019  0.000564)
 46:   1056.39   0.000000    0.00  0.000000  ( 0.000069  0.000313  0.000037)
 47:   1064.69   0.000081    0.41  0.000024  (-0.000000 -0.000002  0.004884)
 48:   1065.19   0.000232    1.17  0.000068  ( 0.000453  0.008235  0.000001)
 49:   1097.45   0.011703   59.14  0.003328  (-0.003897 -0.057556 -0.000000)
 50:   1120.76   0.000133    0.67  0.000037  (-0.000001  0.000001 -0.006083)
 51:   1122.74   0.001504    7.60  0.000418  (-0.020232  0.002963  0.000000)
 52:   1129.00   0.003590   18.14  0.000992  (-0.000000 -0.000000  0.031502)
 53:   1144.82   0.000380    1.92  0.000104  (-0.000000 -0.000000 -0.010178)
 54:   1191.23   0.000033    0.17  0.000009  ( 0.000006  0.000000  0.002949)
 55:   1191.34   0.000080    0.40  0.000021  ( 0.004556  0.000282 -0.000004)
 56:   1209.90   0.000015    0.08  0.000004  (-0.000998  0.001702  0.000000)
 57:   1210.79   0.000010    0.05  0.000003  ( 0.000000 -0.000000  0.001594)
 58:   1267.84   0.007660   38.71  0.001885  ( 0.001398  0.043399  0.000000)
 59:   1286.12   0.003919   19.80  0.000951  (-0.001470  0.030801  0.000000)
 60:   1318.60   0.000016    0.08  0.000004  (-0.000000  0.000000 -0.001922)
 61:   1327.61   0.000843    4.26  0.000198  ( 0.013692  0.003257 -0.000000)
 62:   1357.39   0.000707    3.57  0.000163  ( 0.000000  0.000001  0.012750)
 63:   1362.17   0.000579    2.93  0.000133  ( 0.007561  0.008686 -0.000001)
 64:   1392.45   0.000531    2.68  0.000119  ( 0.000000 -0.000000 -0.010908)
 65:   1417.07   0.002009   10.15  0.000443  ( 0.005082  0.020413  0.000000)
 66:   1456.26   0.000021    0.10  0.000004  (-0.000000 -0.000000 -0.002098)
 67:   1517.85   0.001978   10.00  0.000407  (-0.019377 -0.005586 -0.000004)
 68:   1518.40   0.001288    6.51  0.000265  ( 0.000005  0.000001 -0.016268)
 69:   1549.31   0.008696   43.94  0.001751  (-0.000548  0.041847 -0.000000)
 70:   1557.91   0.001910    9.65  0.000383  (-0.000000  0.000000  0.019562)
 71:   1628.10   0.041962  212.06  0.008043  ( 0.000939 -0.089678 -0.000000)
 72:   1630.12   0.000437    2.21  0.000084  (-0.000000  0.000000  0.009150)
 73:   1686.16   0.002455   12.41  0.000454  ( 0.002926  0.021116  0.000000)
 74:   1687.09   0.000068    0.34  0.000012  (-0.000002  0.000002 -0.003535)
 75:   1687.70   0.001195    6.04  0.000221  ( 0.014568  0.002951 -0.000001)
 76:   1690.24   0.001031    5.21  0.000190  ( 0.000000 -0.000001 -0.013799)
 77:   3214.90   0.001073    5.42  0.000104  (-0.000393 -0.010197  0.000013)
 78:   3214.95   0.000075    0.38  0.000007  (-0.000002 -0.000049 -0.002707)
 79:   3217.53   0.000182    0.92  0.000018  ( 0.000797  0.004130  0.000003)
 80:   3217.56   0.000002    0.01  0.000000  (-0.000006 -0.000034  0.000401)
 81:   3227.67   0.000298    1.50  0.000029  (-0.000468 -0.005345 -0.000025)
 82:   3227.67   0.000025    0.12  0.000002  ( 0.000008  0.000087 -0.001541)
 83:   3237.14   0.000085    0.43  0.000008  (-0.002767 -0.000706  0.000013)
 84:   3237.15   0.000051    0.26  0.000005  ( 0.000016  0.000004  0.002209)
 85:   3245.46   0.000004    0.02  0.000000  ( 0.000004 -0.000049 -0.000608)
 86:   3245.46   0.000053    0.27  0.000005  ( 0.000171 -0.002254  0.000013)
 87:   3304.54   0.005662   28.61  0.000535  (-0.000000  0.000000 -0.023124)
 88:   3306.65   0.003535   17.86  0.000334  ( 0.000523 -0.018258 -0.000000)
 89:   3324.33   0.002529   12.78  0.000237  ( 0.000000 -0.000000  0.015407)

--------------------------
THERMOCHEMISTRY AT 298.15K
--------------------------

Temperature         ... 298.15 K
Pressure            ... 1.00 atm
Total Mass          ... 221.28 AMU

Throughout the following assumptions are being made:
  (1) The electronic state is orbitally nondegenerate
  (2) There are no thermally accessible electronically excited states
  (3) Hindered rotations indicated by low frequency modes are not
      treated as such but are treated as vibrations and this may
      cause some error
  (4) All equations used are the standard statistical mechanics
      equations for an ideal gas
  (5) All vibrations are strictly harmonic

freq.      27.90  E(vib)   ...       0.55
freq.      35.94  E(vib)   ...       0.54
freq.      61.18  E(vib)   ...       0.51
freq.      84.26  E(vib)   ...       0.48
freq.     126.75  E(vib)   ...       0.43
freq.     140.98  E(vib)   ...       0.41
freq.     250.20  E(vib)   ...       0.31
freq.     305.63  E(vib)   ...       0.26
freq.     316.17  E(vib)   ...       0.25
freq.     406.18  E(vib)   ...       0.19
freq.     422.17  E(vib)   ...       0.18
freq.     422.48  E(vib)   ...       0.18
freq.     431.67  E(vib)   ...       0.18
freq.     441.93  E(vib)   ...       0.17
freq.     533.22  E(vib)   ...       0.13
freq.     568.47  E(vib)   ...       0.11
freq.     628.59  E(vib)   ...       0.09
freq.     628.93  E(vib)   ...       0.09
freq.     679.23  E(vib)   ...       0.08
freq.     684.52  E(vib)   ...       0.07
freq.     694.87  E(vib)   ...       0.07
freq.     720.98  E(vib)   ...       0.07
freq.     721.23  E(vib)   ...       0.07
freq.     721.64  E(vib)   ...       0.07
freq.     788.51  E(vib)   ...       0.05
freq.     800.63  E(vib)   ...       0.05
freq.     802.80  E(vib)   ...       0.05
freq.     872.33  E(vib)   ...       0.04
freq.     872.69  E(vib)   ...       0.04
freq.     898.81  E(vib)   ...       0.03
freq.     924.36  E(vib)   ...       0.03
freq.     966.86  E(vib)   ...       0.03
freq.     968.01  E(vib)   ...       0.03
freq.     985.07  E(vib)   ...       0.02
freq.     994.87  E(vib)   ...       0.02
freq.    1023.34  E(vib)   ...       0.02
freq.    1023.46  E(vib)   ...       0.02
freq.    1032.54  E(vib)   ...       0.02
freq.    1033.73  E(vib)   ...       0.02
freq.    1056.36  E(vib)   ...       0.02
freq.    1056.39  E(vib)   ...       0.02
freq.    1064.69  E(vib)   ...       0.02
freq.    1065.19  E(vib)   ...       0.02
freq.    1097.45  E(vib)   ...       0.02
freq.    1120.76  E(vib)   ...       0.01
freq.    1122.74  E(vib)   ...       0.01
freq.    1129.00  E(vib)   ...       0.01
freq.    1144.82  E(vib)   ...       0.01
freq.    1191.23  E(vib)   ...       0.01
freq.    1191.34  E(vib)   ...       0.01
freq.    1209.90  E(vib)   ...       0.01
freq.    1210.79  E(vib)   ...       0.01
freq.    1267.84  E(vib)   ...       0.01
freq.    1286.12  E(vib)   ...       0.01
freq.    1318.60  E(vib)   ...       0.01
freq.    1327.61  E(vib)   ...       0.01
freq.    1357.39  E(vib)   ...       0.01
freq.    1362.17  E(vib)   ...       0.01
freq.    1392.45  E(vib)   ...       0.00
freq.    1417.07  E(vib)   ...       0.00
freq.    1456.26  E(vib)   ...       0.00
freq.    1517.85  E(vib)   ...       0.00
freq.    1518.40  E(vib)   ...       0.00
freq.    1549.31  E(vib)   ...       0.00
freq.    1557.91  E(vib)   ...       0.00
freq.    1628.10  E(vib)   ...       0.00
freq.    1630.12  E(vib)   ...       0.00
freq.    1686.16  E(vib)   ...       0.00
freq.    1687.09  E(vib)   ...       0.00
freq.    1687.70  E(vib)   ...       0.00
freq.    1690.24  E(vib)   ...       0.00
freq.    3214.90  E(vib)   ...       0.00
freq.    3214.95  E(vib)   ...       0.00
freq.    3217.53  E(vib)   ...       0.00
freq.    3217.56  E(vib)   ...       0.00
freq.    3227.67  E(vib)   ...       0.00
freq.    3227.67  E(vib)   ...       0.00
freq.    3237.14  E(vib)   ...       0.00
freq.    3237.15  E(vib)   ...       0.00
freq.    3245.46  E(vib)   ...       0.00
freq.    3245.46  E(vib)   ...       0.00
freq.    3304.54  E(vib)   ...       0.00
freq.    3306.65  E(vib)   ...       0.00
freq.    3324.33  E(vib)   ...       0.00

------------
INNER ENERGY
------------

The inner energy is: U= E(el) + E(ZPE) + E(vib) + E(rot) + E(trans)
    E(el)   - is the total energy from the electronic structure calculation
              = E(kin-el) + E(nuc-el) + E(el-el) + E(nuc-nuc)
    E(ZPE)  - the the zero temperature vibrational energy from the frequency calculation
    E(vib)  - the the finite temperature correction to E(ZPE) due to population
              of excited vibrational states
    E(rot)  - is the rotational thermal energy
    E(trans)- is the translational thermal energy

Summary of contributions to the inner energy U:
Electronic energy                ...   -688.76642655 Eh
Zero point energy                ...      0.24891995 Eh     156.20 kcal/mol
Thermal vibrational correction   ...      0.00989985 Eh       6.21 kcal/mol
Thermal rotational correction    ...      0.00141627 Eh       0.89 kcal/mol
Thermal translational correction ...      0.00141627 Eh       0.89 kcal/mol
-----------------------------------------------------------------------
Total thermal energy                   -688.50477420 Eh

Summary of corrections to the electronic energy:
(perhaps to be used in another calculation)
Total thermal correction                  0.01273239 Eh       7.99 kcal/mol
Non-thermal (ZPE) correction              0.24891995 Eh     156.20 kcal/mol
-----------------------------------------------------------------------
Total correction                          0.26165235 Eh     164.19 kcal/mol

--------
ENTHALPY
--------

The enthalpy is H = U + kB*T
                kB is Boltzmann's constant
Total free energy                 ...   -688.50477420 Eh
Thermal Enthalpy correction       ...      0.00094421 Eh       0.59 kcal/mol
-----------------------------------------------------------------------
Total Enthalpy                    ...   -688.50382999 Eh

Note: Rotational entropy computed according to Herzberg
Infrared and Raman Spectra, Chapter V,1, Van Nostrand Reinhold, 1945
Point Group:  C2, Symmetry Number:   2
Rotational constants in cm-1:     0.053122     0.006776     0.006502

Vibrational entropy computed according to the QRRHO of S. Grimme
Chem.Eur.J. 2012 18 9955

-------
ENTROPY
-------

The entropy contributions are T*S = T*(S(el)+S(vib)+S(rot)+S(trans))
     S(el)   - electronic entropy
     S(vib)  - vibrational entropy

                             ****ORCA TERMINATED NORMALLY****
TOTAL RUN TIME: 0 days 1 hours 28 minutes 12 seconds 530 msec
