                         Program Version 5.0.4 -  RELEASE  -
|  1> # ORCA 5.0.4 - /users/bwb16179/postgrad/2024_06/pKa_Reviewer_Comments/Gas_Z=1/9_prot.inp # write input file
|  2> # Basic Mode
|  3> #
|  4> ! Opt Freq wB97X Def2-TZVP D4 SlowConv TightSCF Defgrid2 Def2/J RIJCOSX
|  5>
|  6> %PAL NPROCS 4 END
|  7>
|  8> %maxcore 4500
|  9>
| 10> %geom
| 11> Maxiter 150
| 12> END
| 13>
| 14> * xyzfile 1 1 9_prot.xyz
| 15>
| 16>                          ****END OF INPUT****
 Total Charge           Charge          ....    1
 Multiplicity           Mult            ....    1
 Number of Electrons    NEL             ....   54
Dispersion correction           -0.001838270
FINAL SINGLE POINT ENERGY      -306.463175210115
Dispersion correction            ... Starting D4
Dispersion correction           -0.001840754
FINAL SINGLE POINT ENERGY      -306.463935312541
Dispersion correction            ... Starting D4
Dispersion correction           -0.001840762
FINAL SINGLE POINT ENERGY      -306.463941381118
Dispersion correction            ... Starting D4
                    ***********************HURRAY********************

CARTESIAN COORDINATES (ANGSTROEM)
---------------------------------
  C     -0.124949    0.851816   -1.188451
  C     -0.131692   -0.681437   -1.354952
  N      0.020160    1.021452    0.263821
  N      0.010346   -1.159526    0.026655
  C      0.087059   -0.145765    0.847435
  H     -1.052166    1.316803   -1.524503
  H     -1.062523   -1.057540   -1.780471
  H      0.699854   -1.045177   -1.959285
  H      0.710284    1.330074   -1.700866
  C      0.081247    2.324189    0.898947
  C      0.060651   -2.569021    0.364927
  H     -0.832199    2.881927    0.691223
  H     -0.853015   -3.061464    0.031140
  H      0.918646   -3.036680   -0.118881
  H      0.937527    2.881786    0.518392
  H      0.185926    2.200201    1.974861
  H      0.153558   -2.681961    1.443181
  H      0.197508   -0.262738    1.918977

 Multiplicity           Mult            ....    1
 Number of Electrons    NEL             ....   54
 Basis Dimension        Dim             ....  283

ORBITAL ENERGIES
----------------

  NO   OCC          E(Eh)            E(eV)
   0   2.0000     -14.628462      -398.0607
   1   2.0000     -14.628409      -398.0592
   2   2.0000     -10.542443      -286.8744
   3   2.0000     -10.474780      -285.0333
   4   2.0000     -10.474617      -285.0288
   5   2.0000     -10.455268      -284.5023
   6   2.0000     -10.455257      -284.5020
   7   2.0000      -1.351858       -36.7859
   8   2.0000      -1.241395       -33.7801
   9   2.0000      -1.090121       -29.6637
  10   2.0000      -1.058358       -28.7994
  11   2.0000      -0.990795       -26.9609
  12   2.0000      -0.946057       -25.7435
  13   2.0000      -0.896994       -24.4085
  14   2.0000      -0.825483       -22.4625
  15   2.0000      -0.811559       -22.0836
  16   2.0000      -0.770625       -20.9698
  17   2.0000      -0.737547       -20.0697
  18   2.0000      -0.730014       -19.8647
  19   2.0000      -0.719953       -19.5909
  20   2.0000      -0.710279       -19.3277
  21   2.0000      -0.692210       -18.8360
  22   2.0000      -0.665675       -18.1139
  23   2.0000      -0.655415       -17.8347
  24   2.0000      -0.653161       -17.7734
  25   2.0000      -0.640762       -17.4360
  26   2.0000      -0.509111       -13.8536
  27   0.0000      -0.103333        -2.8118
  28   0.0000      -0.041426        -1.1272
  29   0.0000      -0.017965        -0.4888
  30   0.0000      -0.016167        -0.4399
  31   0.0000       0.015588         0.4242

MULLIKEN ATOMIC CHARGES
-----------------------
   0 C :   -0.151813
   1 C :   -0.151970
   2 N :   -0.126048
   3 N :   -0.125935
   4 C :    0.165604
   5 H :    0.171613
   6 H :    0.171638
   7 H :    0.171412
   8 H :    0.171428
   9 C :   -0.262396
  10 C :   -0.262425
  11 H :    0.171979
  12 H :    0.171595
  13 H :    0.172123
  14 H :    0.171970
  15 H :    0.154082
  16 H :    0.154179
  17 H :    0.232964
Sum of atomic charges:    1.0000000

LOEWDIN ATOMIC CHARGES
----------------------
   0 C :   -0.181952
   1 C :   -0.182132
   2 N :    0.208985
   3 N :    0.208916
   4 C :   -0.149470
   5 H :    0.148822
   6 H :    0.148802
   7 H :    0.148806
   8 H :    0.148750
   9 C :   -0.239816
  10 C :   -0.239818
  11 H :    0.134501
  12 H :    0.134595
  13 H :    0.134411
  14 H :    0.134482
  15 H :    0.135965
  16 H :    0.135981
  17 H :    0.170172

  Mayer bond orders larger than 0.100000
B(  0-C ,  1-C ) :   0.9845 B(  0-C ,  2-N ) :   0.8824 B(  0-C ,  5-H ) :   0.9635
B(  0-C ,  8-H ) :   0.9636 B(  1-C ,  3-N ) :   0.8824 B(  1-C ,  6-H ) :   0.9636
B(  1-C ,  7-H ) :   0.9635 B(  2-N ,  4-C ) :   1.4781 B(  2-N ,  9-C ) :   0.8868
B(  3-N ,  4-C ) :   1.4784 B(  3-N , 10-C ) :   0.8869 B(  4-C , 17-H ) :   0.8982
B(  9-C , 11-H ) :   0.9590 B(  9-C , 14-H ) :   0.9591 B(  9-C , 15-H ) :   0.9589
B( 10-C , 12-H ) :   0.9590 B( 10-C , 13-H ) :   0.9592 B( 10-C , 16-H ) :   0.9589

Dispersion correction           -0.001840687
FINAL SINGLE POINT ENERGY      -306.463943718932

DIPOLE MOMENT
-------------
                                X             Y             Z
Electronic contribution:      0.03464      -0.05690       0.53973
Nuclear contribution   :     -0.00687       0.03077      -0.30336
                        -----------------------------------------
Total Dipole Moment    :      0.02776      -0.02612       0.23638
                        -----------------------------------------
Magnitude (a.u.)       :      0.23943
Magnitude (Debye)      :      0.60859

Dispersion correction in the Hessian             ... Starting D4

VIBRATIONAL FREQUENCIES
-----------------------

Scaling factor for frequencies =  1.000000000  (already applied!)

   0:         0.00 cm**-1
   1:         0.00 cm**-1
   2:         0.00 cm**-1
   3:         0.00 cm**-1
   4:         0.00 cm**-1
   5:         0.00 cm**-1
   6:        73.87 cm**-1
   7:       112.28 cm**-1
   8:       130.55 cm**-1
   9:       184.76 cm**-1
  10:       207.99 cm**-1
  11:       270.72 cm**-1
  12:       397.46 cm**-1
  13:       474.65 cm**-1
  14:       608.00 cm**-1
  15:       628.27 cm**-1
  16:       857.03 cm**-1
  17:       941.17 cm**-1
  18:       953.20 cm**-1
  19:      1007.19 cm**-1
  20:      1022.90 cm**-1
  21:      1109.59 cm**-1
  22:      1111.47 cm**-1
  23:      1124.18 cm**-1
  24:      1158.40 cm**-1
  25:      1172.17 cm**-1
  26:      1190.50 cm**-1
  27:      1246.06 cm**-1
  28:      1273.90 cm**-1
  29:      1335.10 cm**-1
  30:      1357.72 cm**-1
  31:      1360.01 cm**-1
  32:      1387.20 cm**-1
  33:      1469.83 cm**-1
  34:      1477.73 cm**-1
  35:      1483.27 cm**-1
  36:      1484.15 cm**-1
  37:      1502.66 cm**-1
  38:      1513.92 cm**-1
  39:      1522.15 cm**-1
  40:      1537.02 cm**-1
  41:      1617.28 cm**-1
  42:      1755.15 cm**-1
  43:      3084.92 cm**-1
  44:      3085.23 cm**-1
  45:      3103.52 cm**-1
  46:      3108.29 cm**-1
  47:      3147.22 cm**-1
  48:      3162.47 cm**-1
  49:      3165.38 cm**-1
  50:      3166.52 cm**-1
  51:      3192.11 cm**-1
  52:      3192.18 cm**-1
  53:      3250.01 cm**-1

IR SPECTRUM
-----------

 Mode   freq       eps      Int      T**2         TX        TY        TZ
       cm**-1   L/(mol*cm) km/mol    a.u.
----------------------------------------------------------------------------
  6:     73.87   0.000000    0.00  0.000002  (-0.000401 -0.001359 -0.000279)
  7:    112.28   0.000381    1.93  0.001059  ( 0.032364  0.000208 -0.003408)
  8:    130.55   0.000026    0.13  0.000063  ( 0.007874  0.000579 -0.000783)
  9:    184.76   0.000471    2.38  0.000795  ( 0.028060  0.000457 -0.002664)
 10:    207.99   0.000004    0.02  0.000007  ( 0.002415  0.000916 -0.000169)
 11:    270.72   0.000015    0.08  0.000017  (-0.000152  0.000419 -0.004154)
 12:    397.46   0.000061    0.31  0.000048  (-0.000046 -0.006857 -0.000756)
 13:    474.65   0.004313   21.80  0.002836  ( 0.052955  0.000645 -0.005584)
 14:    608.00   0.000030    0.15  0.000015  ( 0.000700  0.000132  0.003868)
 15:    628.27   0.001624    8.21  0.000807  (-0.000158 -0.028241 -0.002998)
 16:    857.03   0.000001    0.00  0.000000  (-0.000192  0.000443  0.000089)
 17:    941.17   0.001863    9.42  0.000618  ( 0.002546 -0.002349  0.024613)
 18:    953.20   0.000498    2.52  0.000163  (-0.000094 -0.012732 -0.000962)
 19:   1007.19   0.000051    0.26  0.000016  ( 0.000517 -0.000455  0.003911)
 20:   1022.90   0.001074    5.43  0.000328  (-0.018009 -0.000148  0.001852)
 21:   1109.59   0.000081    0.41  0.000023  (-0.000065 -0.004673  0.000899)
 22:   1111.47   0.002774   14.02  0.000779  ( 0.000089 -0.027722 -0.003203)
 23:   1124.18   0.001166    5.89  0.000324  (-0.002031  0.001866 -0.017779)
 24:   1158.40   0.000006    0.03  0.000002  ( 0.001247 -0.000063 -0.000209)
 25:   1172.17   0.000018    0.09  0.000005  (-0.000525 -0.002077 -0.000481)
 26:   1190.50   0.017556   88.72  0.004602  ( 0.000368  0.067430  0.007412)
 27:   1246.06   0.001953    9.87  0.000489  (-0.022019 -0.000428  0.002025)
 28:   1273.90   0.000014    0.07  0.000003  ( 0.001670 -0.000473 -0.000637)
 29:   1335.10   0.004669   23.60  0.001091  (-0.003135  0.001981 -0.032828)
 30:   1357.72   0.011848   59.87  0.002723  ( 0.000307 -0.052082 -0.003237)
 31:   1360.01   0.003891   19.66  0.000893  (-0.000337 -0.029651 -0.003684)
 32:   1387.20   0.002142   10.83  0.000482  ( 0.002430  0.000063  0.021819)
 33:   1469.83   0.005925   29.94  0.001258  (-0.004542  0.034922  0.004223)
 34:   1477.73   0.000579    2.93  0.000122  ( 0.005358 -0.005636  0.007859)
 35:   1483.27   0.000076    0.39  0.000016  ( 0.000074 -0.002356  0.003243)
 36:   1484.15   0.007091   35.83  0.001491  (-0.038146 -0.005178  0.002995)
 37:   1502.66   0.004282   21.64  0.000889  ( 0.001259 -0.001815  0.029738)
 38:   1513.92   0.000000    0.00  0.000000  ( 0.000056  0.000170 -0.000128)
 39:   1522.15   0.000003    0.01  0.000001  ( 0.000134 -0.000665 -0.000255)
 40:   1537.02   0.000015    0.07  0.000003  (-0.000014  0.000168 -0.001712)
 41:   1617.28   0.005655   28.58  0.001091  (-0.003171  0.003705 -0.032670)
 42:   1755.15   0.097209  491.25  0.017284  (-0.000524 -0.130682 -0.014338)
 43:   3084.92   0.003777   19.09  0.000382  ( 0.000076 -0.019509 -0.001203)
 44:   3085.23   0.000360    1.82  0.000036  (-0.000700 -0.003812 -0.004624)
 45:   3103.52   0.001172    5.92  0.000118  ( 0.000100  0.010715  0.001734)
 46:   3108.29   0.001159    5.86  0.000116  ( 0.001054 -0.001798  0.010585)
 47:   3147.22   0.000000    0.00  0.000000  (-0.000040 -0.000042 -0.000031)
 48:   3162.47   0.001346    6.80  0.000133  ( 0.011475  0.000040 -0.001083)
 49:   3165.38   0.000002    0.01  0.000000  ( 0.000432 -0.000007 -0.000059)
 50:   3166.52   0.000176    0.89  0.000017  ( 0.004130 -0.000036 -0.000487)
 51:   3192.11   0.000217    1.09  0.000021  (-0.000160 -0.004162 -0.001954)
 52:   3192.18   0.000376    1.90  0.000037  ( 0.000708 -0.001832  0.005738)
 53:   3250.01   0.000942    4.76  0.000090  (-0.000996  0.000966 -0.009411)

--------------------------
THERMOCHEMISTRY AT 298.15K
--------------------------

Temperature         ... 298.15 K
Pressure            ... 1.00 atm
Total Mass          ... 99.16 AMU

Throughout the following assumptions are being made:
  (1) The electronic state is orbitally nondegenerate
  (2) There are no thermally accessible electronically excited states
  (3) Hindered rotations indicated by low frequency modes are not
      treated as such but are treated as vibrations and this may
      cause some error
  (4) All equations used are the standard statistical mechanics
      equations for an ideal gas
  (5) All vibrations are strictly harmonic

freq.      73.87  E(vib)   ...       0.49
freq.     112.28  E(vib)   ...       0.45
freq.     130.55  E(vib)   ...       0.43
freq.     184.76  E(vib)   ...       0.37
freq.     207.99  E(vib)   ...       0.34
freq.     270.72  E(vib)   ...       0.29
freq.     397.46  E(vib)   ...       0.20
freq.     474.65  E(vib)   ...       0.15
freq.     608.00  E(vib)   ...       0.10
freq.     628.27  E(vib)   ...       0.09
freq.     857.03  E(vib)   ...       0.04
freq.     941.17  E(vib)   ...       0.03
freq.     953.20  E(vib)   ...       0.03
freq.    1007.19  E(vib)   ...       0.02
freq.    1022.90  E(vib)   ...       0.02
freq.    1109.59  E(vib)   ...       0.02
freq.    1111.47  E(vib)   ...       0.01
freq.    1124.18  E(vib)   ...       0.01
freq.    1158.40  E(vib)   ...       0.01
freq.    1172.17  E(vib)   ...       0.01
freq.    1190.50  E(vib)   ...       0.01
freq.    1246.06  E(vib)   ...       0.01
freq.    1273.90  E(vib)   ...       0.01
freq.    1335.10  E(vib)   ...       0.01
freq.    1357.72  E(vib)   ...       0.01
freq.    1360.01  E(vib)   ...       0.01
freq.    1387.20  E(vib)   ...       0.00
freq.    1469.83  E(vib)   ...       0.00
freq.    1477.73  E(vib)   ...       0.00
freq.    1483.27  E(vib)   ...       0.00
freq.    1484.15  E(vib)   ...       0.00
freq.    1502.66  E(vib)   ...       0.00
freq.    1513.92  E(vib)   ...       0.00
freq.    1522.15  E(vib)   ...       0.00
freq.    1537.02  E(vib)   ...       0.00
freq.    1617.28  E(vib)   ...       0.00
freq.    1755.15  E(vib)   ...       0.00
freq.    3084.92  E(vib)   ...       0.00
freq.    3085.23  E(vib)   ...       0.00
freq.    3103.52  E(vib)   ...       0.00
freq.    3108.29  E(vib)   ...       0.00
freq.    3147.22  E(vib)   ...       0.00
freq.    3162.47  E(vib)   ...       0.00
freq.    3165.38  E(vib)   ...       0.00
freq.    3166.52  E(vib)   ...       0.00
freq.    3192.11  E(vib)   ...       0.00
freq.    3192.18  E(vib)   ...       0.00
freq.    3250.01  E(vib)   ...       0.00

------------
INNER ENERGY
------------

The inner energy is: U= E(el) + E(ZPE) + E(vib) + E(rot) + E(trans)
    E(el)   - is the total energy from the electronic structure calculation
              = E(kin-el) + E(nuc-el) + E(el-el) + E(nuc-nuc)
    E(ZPE)  - the the zero temperature vibrational energy from the frequency calculation
    E(vib)  - the the finite temperature correction to E(ZPE) due to population
              of excited vibrational states
    E(rot)  - is the rotational thermal energy
    E(trans)- is the translational thermal energy

Summary of contributions to the inner energy U:
Electronic energy                ...   -306.46394372 Eh
Zero point energy                ...      0.16566235 Eh     103.95 kcal/mol
Thermal vibrational correction   ...      0.00507832 Eh       3.19 kcal/mol
Thermal rotational correction    ...      0.00141627 Eh       0.89 kcal/mol
Thermal translational correction ...      0.00141627 Eh       0.89 kcal/mol
-----------------------------------------------------------------------
Total thermal energy                   -306.29037050 Eh

Summary of corrections to the electronic energy:
(perhaps to be used in another calculation)
Total thermal correction                  0.00791087 Eh       4.96 kcal/mol
Non-thermal (ZPE) correction              0.16566235 Eh     103.95 kcal/mol
-----------------------------------------------------------------------
Total correction                          0.17357322 Eh     108.92 kcal/mol

--------
ENTHALPY
--------

The enthalpy is H = U + kB*T
                kB is Boltzmann's constant
Total free energy                 ...   -306.29037050 Eh
Thermal Enthalpy correction       ...      0.00094421 Eh       0.59 kcal/mol
-----------------------------------------------------------------------
Total Enthalpy                    ...   -306.28942629 Eh

Note: Only C1 symmetry has been detected, increase convergence thresholds
      if your molecule has a higher symmetry. Symmetry factor of 1.0 is
      used for the rotational entropy correction.

Note: Rotational entropy computed according to Herzberg
Infrared and Raman Spectra, Chapter V,1, Van Nostrand Reinhold, 1945
Point Group:  C1, Symmetry Number:   1
Rotational constants in cm-1:     0.191746     0.066463     0.051261

Vibrational entropy computed according to the QRRHO of S. Grimme
Chem.Eur.J. 2012 18 9955

-------
ENTROPY
-------

The entropy contributions are T*S = T*(S(el)+S(vib)+S(rot)+S(trans))
     S(el)   - electronic entropy
     S(vib)  - vibrational entropy
     S(rot)  - rotational entropy
     S(trans)- translational entropy
The entropies will be listed as multiplied by the temperature to get
units of energy

Electronic entropy                ...      0.00000000 Eh      0.00 kcal/mol
Vibrational entropy               ...      0.00896711 Eh      5.63 kcal/mol
Rotational entropy                ...      0.01297289 Eh      8.14 kcal/mol
Translational entropy             ...      0.01885925 Eh     11.83 kcal/mol
-----------------------------------------------------------------------
Final entropy term                ...      0.04079926 Eh     25.60 kcal/mol

In case the symmetry of your molecule has not been determined correctly
or in case you have a reason to use a different symmetry number we print
out the resulting rotational entropy values for sn=1,12 :
 --------------------------------------------------------
|  sn= 1 | S(rot)=       0.01297289 Eh      8.14 kcal/mol|
|  sn= 2 | S(rot)=       0.01231844 Eh      7.73 kcal/mol|
|  sn= 3 | S(rot)=       0.01193560 Eh      7.49 kcal/mol|
|  sn= 4 | S(rot)=       0.01166398 Eh      7.32 kcal/mol|
|  sn= 5 | S(rot)=       0.01145329 Eh      7.19 kcal/mol|
|  sn= 6 | S(rot)=       0.01128115 Eh      7.08 kcal/mol|
|  sn= 7 | S(rot)=       0.01113560 Eh      6.99 kcal/mol|
|  sn= 8 | S(rot)=       0.01100952 Eh      6.91 kcal/mol|
|  sn= 9 | S(rot)=       0.01089831 Eh      6.84 kcal/mol|
|  sn=10 | S(rot)=       0.01079883 Eh      6.78 kcal/mol|
|  sn=11 | S(rot)=       0.01070884 Eh      6.72 kcal/mol|
|  sn=12 | S(rot)=       0.01062669 Eh      6.67 kcal/mol|
 --------------------------------------------------------

                             ****ORCA TERMINATED NORMALLY****
TOTAL RUN TIME: 0 days 0 hours 14 minutes 55 seconds 459 msec
