   * xtb version 6.6.1 (8d0f1dd) compiled by 'conda@1efc2f54142f' on 2023-08-01
          program call               : xtb struc.xyz --gfn2 --ceasefiles --opt

   ID    Z sym.   atoms
    1    6 C      1, 2, 5-7, 11-14, 27, 28
    2    7 N      3, 4
    3    1 H      8-10, 15-26, 29-34

          :  Hamiltonian                  GFN2-xTB          :
 * total energy  :   -39.7421279 Eh     change       -0.3843276E-08 Eh
 * total energy  :   -39.7654045 Eh     change       -0.2327660E-01 Eh
 * total energy  :   -39.7726700 Eh     change       -0.7265430E-02 Eh
 * total energy  :   -39.7754855 Eh     change       -0.2815554E-02 Eh
 * total energy  :   -39.7768388 Eh     change       -0.1353246E-02 Eh
 * total energy  :   -39.7776221 Eh     change       -0.7833188E-03 Eh
 * total energy  :   -39.7781524 Eh     change       -0.5302599E-03 Eh
 * total energy  :   -39.7784618 Eh     change       -0.3094465E-03 Eh
   *** GEOMETRY OPTIMIZATION CONVERGED AFTER 8 ITERATIONS ***

 final structure:
================
34
 xtb: 6.6.1 (8d0f1dd)
C           -2.18981036282153        0.32425543123072        1.21889702188263
C            2.29897596310777       -0.39565707009180       -0.85132592483963
N           -1.07667924866836        0.25788093787778        0.25319251413875
N            0.87522646293955       -0.07472161121506       -0.65570193371363
C           -1.18110509580562        0.57238587163449       -1.07025279367795
C            0.03728204439763        0.36186211179266       -1.63642500028775
C            0.17609733607015       -0.13137076854645        0.47401755722791
H           -2.09009714742333        0.91304788518204       -1.51649022258125
H            0.33332041472830        0.50325513269285       -2.65418740352381
H            0.55728467431885       -0.44314669163517        1.42291452434425
C           -1.66625885485693        0.05755115847058        2.62521488563034
C            2.99295938715367        0.86636972038946       -1.36525539682802
C            2.38710875085450       -1.53279956057672       -1.87146213268439
C           -2.79829410241116        1.72651527601631        1.14819757635115
H           -0.90694184039368        0.78484197820225        2.90413273581024
H            2.91484473130554        1.67067969089722       -0.63649242305199
H            1.98769699625670       -1.23717916075290       -2.83767384468213
H           -2.04515005497741        2.48537706133486        1.34368205410276
H           -2.48234403383311        0.14284403974528        3.33356856099411
H            2.56166355588395        1.20592469056966       -2.30397488985345
H            3.42631172356515       -1.81345783283233       -2.01231440343911
H           -3.58122729912668        1.81877540655913        1.89868293227297
H           -1.26208453620690       -0.94849927888528        2.71555112082267
H            4.04611974499529        0.66251587271935       -1.53414708554943
H            1.83962138557670       -2.40439690626804       -1.51862471529922
H           -3.24930218507971        1.92354806840106        0.17777223403125
C           -3.21517338816946       -0.73587064144224        0.81524546656457
C            2.92457259981241       -0.83343893938226        0.46988983127145
H           -4.11594422149983       -0.61711099050382        1.41896818900057
H            2.47576691043713       -1.75459393484837        0.83921117964358
H           -3.49248962978151       -0.62747234345484       -0.23402631535331
H            2.84527948457487       -0.05789785052944        1.22924010375145
H            3.98250755660118       -1.02353905065853        0.30485551891574
H           -2.81823004132412       -1.74164767199245        0.97347558850850

          :  Hamiltonian                  GFN2-xTB          :
         :: total energy             -39.778461799233 Eh    ::
         :: gradient norm              0.008908037528 Eh/a0 ::
         :: HOMO-LUMO gap              4.881814322556 eV    ::
         :: SCC energy               -40.386732440723 Eh    ::
         :: -> dispersion             -0.027861663234 Eh    ::
         :: repulsion energy           0.608002147483 Eh    ::

    * Orbital Energies and Occupations

         #    Occupation            Energy/Eh            Energy/eV
      -------------------------------------------------------------
         1        2.0000           -0.8781846             -23.8966
       ...           ...                  ...                  ...
        25        2.0000           -0.6004367             -16.3387
        26        2.0000           -0.5993594             -16.3094
        27        2.0000           -0.5981207             -16.2757
        28        2.0000           -0.5978112             -16.2673
        29        2.0000           -0.5930879             -16.1387
        30        2.0000           -0.5902391             -16.0612
        31        2.0000           -0.5900082             -16.0549
        32        2.0000           -0.5897764             -16.0486
        33        2.0000           -0.5809661             -15.8089
        34        2.0000           -0.5777440             -15.7212
        35        2.0000           -0.5773918             -15.7116
        36        2.0000           -0.5736981             -15.6111
        37        2.0000           -0.5713576             -15.5474 (HOMO)
        38                         -0.3919542             -10.6656 (LUMO)
        39                         -0.3574975              -9.7280
        40                         -0.1967780              -5.3546
        41                         -0.1460990              -3.9756
        42                         -0.0746988              -2.0327
        43                         -0.0593149              -1.6140
        44                         -0.0573421              -1.5604
        45                         -0.0489969              -1.3333
        46                         -0.0458090              -1.2465
        47                         -0.0354942              -0.9658
        48                         -0.0341970              -0.9305
       ...                                ...                  ...
        73                          0.4738199              12.8933
      -------------------------------------------------------------
                  HL-Gap            0.1794034 Eh            4.8818 eV

     #   Z          covCN         q      C6AA      α(0)
     1   6 C        3.836     0.075    19.300     6.250
     2   6 C        3.837     0.075    19.306     6.251
     3   7 N        2.870     0.045    20.455     6.717
     4   7 N        2.871     0.048    20.398     6.708
     5   6 C        3.076    -0.005    28.074     8.687
     6   6 C        3.077    -0.004    28.049     8.683
     7   6 C        3.106     0.050    26.744     8.473
     8   1 H        0.927     0.099     1.796     2.096
     9   1 H        0.927     0.099     1.798     2.097
    10   1 H        0.927     0.113     1.672     2.022
    11   6 C        3.760    -0.133    23.098     6.852
    12   6 C        3.760    -0.128    23.008     6.838
    13   6 C        3.760    -0.128    23.010     6.838
    14   6 C        3.759    -0.128    23.016     6.839
    15   1 H        0.925     0.058     2.227     2.334
    16   1 H        0.925     0.058     2.224     2.332
    17   1 H        0.925     0.061     2.188     2.313
    18   1 H        0.925     0.058     2.217     2.329
    19   1 H        0.925     0.083     1.952     2.185
    20   1 H        0.925     0.060     2.197     2.318
    21   1 H        0.925     0.080     1.983     2.202
    22   1 H        0.925     0.079     1.993     2.208
    23   1 H        0.925     0.056     2.243     2.342
    24   1 H        0.925     0.079     1.984     2.203
    25   1 H        0.925     0.058     2.228     2.334
    26   1 H        0.925     0.061     2.186     2.312
    27   6 C        3.758    -0.127    22.994     6.836
    28   6 C        3.759    -0.133    23.101     6.852
    29   1 H        0.924     0.080     1.981     2.201
    30   1 H        0.925     0.058     2.225     2.333
    31   1 H        0.924     0.059     2.215     2.327
    32   1 H        0.925     0.057     2.240     2.341
    33   1 H        0.925     0.082     1.958     2.188
    34   1 H        0.924     0.059     2.215     2.327

molecular dipole:
                 x           y           z       tot (Debye)
 q only:       -0.066       0.072      -0.070
   full:       -0.065       0.073      -0.063       0.295

           -------------------------------------------------
          | TOTAL ENERGY              -39.778461799233 Eh   |
          | GRADIENT NORM               0.008908037528 Eh/α |
          | HOMO-LUMO GAP               4.881814322556 eV   |
           -------------------------------------------------

 * finished run on 2024/02/12 at 14:13:52.361
