   * xtb version 6.6.1 (8d0f1dd) compiled by 'conda@1efc2f54142f' on 2023-08-01
          program call               : xtb struc.xyz --gfn2 --ceasefiles --opt

   ID    Z sym.   atoms
    1    6 C      1, 2, 5-7, 11-14, 27, 28
    2    7 N      3, 4
    3    1 H      8-10, 15-26, 29-34

          :  Hamiltonian                  GFN2-xTB          :
 * total energy  :   -39.7475950 Eh     change       -0.3233680E-10 Eh
 * total energy  :   -39.7655804 Eh     change       -0.1798539E-01 Eh
 * total energy  :   -39.7702072 Eh     change       -0.4626816E-02 Eh
 * total energy  :   -39.7719878 Eh     change       -0.1780540E-02 Eh
 * total energy  :   -39.7733972 Eh     change       -0.1409457E-02 Eh
 * total energy  :   -39.7743803 Eh     change       -0.9830562E-03 Eh
 * total energy  :   -39.7750397 Eh     change       -0.6594300E-03 Eh
 * total energy  :   -39.7754187 Eh     change       -0.3789560E-03 Eh
 * total energy  :   -39.7758236 Eh     change       -0.4048856E-03 Eh
 * total energy  :   -39.7761066 Eh     change       -0.2830643E-03 Eh
   *** GEOMETRY OPTIMIZATION CONVERGED AFTER 10 ITERATIONS ***

 final structure:
================
34
 xtb: 6.6.1 (8d0f1dd)
C           -2.17843534211648        0.74319596890373        1.01862760646016
C            2.29813573700396       -0.36627083786104       -0.86117378619099
N           -1.08157855330442        0.04868346006699        0.32151128082194
N            0.86180620846161       -0.44949052528080       -0.52612946234630
C           -1.20985660610874       -1.14394572782635       -0.32520342502399
C            0.00458301126527       -1.45656597047503       -0.85141185035438
C            0.17878354649416        0.44519815419706        0.18427140477349
H           -2.13349883526878       -1.68126633840927       -0.37132173569126
H            0.28751795775766       -2.32053942953073       -1.41312790011081
H            0.58774432200315        1.34967284967197        0.58496201650291
C           -1.60974819306670        1.88432260772882        1.85926384581965
C            3.09014080242995       -0.68146191470352        0.40766399822659
C            2.59644655022685        1.05131938007582       -1.35542540112548
C           -3.12434220323740        1.29878842601578       -0.04842200132442
H           -1.13182510533638        2.64020259411533        1.23664508780547
H            2.86471472199548       -1.68267032158274        0.76588554617887
H            2.47171305878014        1.79041931429887       -0.57000103980680
H           -2.60642042344273        1.98542151799248       -0.71434233185340
H           -2.42856400369882        2.37045736071613        2.38990815968870
H            2.86368820499096        0.03079375394027        1.19835350204017
H            3.62585345842457        1.10575897171081       -1.69349146315686
H           -3.92817205437147        1.84174298191114        0.43594664157047
H           -0.90236843580918        1.51066960733620        2.59883944845390
H            4.15197345289056       -0.62595370530358        0.19594286388031
H            1.95124279930454        1.30881788422996       -2.19146250004423
H           -3.56087898604945        0.50290666146441       -0.64200443218772
C           -2.89976840397067       -0.27533393282397        1.91319561134441
C            2.62921671258271       -1.36998694227850       -1.96033923182597
H           -3.22226238272288        0.19846990987347        2.83548185753624
H            2.02136967777507       -1.19862655810435       -2.84323694112374
H           -3.78275503620476       -0.67661341561406        1.42386507032868
H            2.50556629073598       -2.39467694064646       -1.62456207687595
H            3.66970371593249       -1.24802179021718       -2.24391878624920
H           -2.24765036234621       -1.10319120309157        2.18214079245951

          :  Hamiltonian                  GFN2-xTB          :
         :: total energy             -39.776106621710 Eh    ::
         :: gradient norm              0.006933839401 Eh/a0 ::
         :: HOMO-LUMO gap              4.830119512162 eV    ::
         :: SCC energy               -40.386891767248 Eh    ::
         :: -> dispersion             -0.027863618636 Eh    ::
         :: repulsion energy           0.610512443713 Eh    ::

    * Orbital Energies and Occupations

         #    Occupation            Energy/Eh            Energy/eV
      -------------------------------------------------------------
         1        2.0000           -0.8781310             -23.8952
       ...           ...                  ...                  ...
        25        2.0000           -0.6009446             -16.3525
        26        2.0000           -0.6003497             -16.3363
        27        2.0000           -0.6000020             -16.3269
        28        2.0000           -0.5961821             -16.2229
        29        2.0000           -0.5931147             -16.1395
        30        2.0000           -0.5917641             -16.1027
        31        2.0000           -0.5897136             -16.0469
        32        2.0000           -0.5882800             -16.0079
        33        2.0000           -0.5815193             -15.8239
        34        2.0000           -0.5781686             -15.7328
        35        2.0000           -0.5773224             -15.7097
        36        2.0000           -0.5727028             -15.5840
        37        2.0000           -0.5700604             -15.5121 (HOMO)
        38                         -0.3925568             -10.6820 (LUMO)
        39                         -0.3563046              -9.6955
        40                         -0.1977834              -5.3820
        41                         -0.1464968              -3.9864
        42                         -0.0745946              -2.0298
        43                         -0.0624304              -1.6988
        44                         -0.0583133              -1.5868
        45                         -0.0567277              -1.5436
        46                         -0.0454230              -1.2360
        47                         -0.0382775              -1.0416
        48                         -0.0311367              -0.8473
       ...                                ...                  ...
        73                          0.4752829              12.9331
      -------------------------------------------------------------
                  HL-Gap            0.1775036 Eh            4.8301 eV

     #   Z          covCN         q      C6AA      α(0)
     1   6 C        3.836     0.075    19.309     6.252
     2   6 C        3.836     0.075    19.307     6.251
     3   7 N        2.870     0.047    20.415     6.711
     4   7 N        2.871     0.046    20.443     6.715
     5   6 C        3.080    -0.007    28.110     8.692
     6   6 C        3.075    -0.007    28.109     8.693
     7   6 C        3.109     0.052    26.684     8.463
     8   1 H        0.927     0.101     1.773     2.082
     9   1 H        0.927     0.104     1.751     2.069
    10   1 H        0.926     0.108     1.715     2.048
    11   6 C        3.758    -0.131    23.078     6.849
    12   6 C        3.760    -0.128    23.000     6.837
    13   6 C        3.760    -0.131    23.058     6.846
    14   6 C        3.760    -0.127    22.992     6.836
    15   1 H        0.925     0.056     2.248     2.345
    16   1 H        0.925     0.060     2.202     2.320
    17   1 H        0.925     0.055     2.264     2.353
    18   1 H        0.925     0.056     2.242     2.342
    19   1 H        0.925     0.081     1.972     2.196
    20   1 H        0.925     0.054     2.272     2.357
    21   1 H        0.925     0.081     1.973     2.196
    22   1 H        0.925     0.081     1.970     2.195
    23   1 H        0.925     0.059     2.216     2.328
    24   1 H        0.925     0.081     1.970     2.195
    25   1 H        0.925     0.059     2.213     2.326
    26   1 H        0.925     0.060     2.196     2.317
    27   6 C        3.758    -0.132    23.091     6.851
    28   6 C        3.760    -0.131    23.068     6.847
    29   1 H        0.925     0.078     2.000     2.212
    30   1 H        0.925     0.062     2.178     2.308
    31   1 H        0.925     0.068     2.103     2.268
    32   1 H        0.925     0.062     2.177     2.308
    33   1 H        0.925     0.079     1.985     2.203
    34   1 H        0.925     0.056     2.245     2.343

molecular dipole:
                 x           y           z       tot (Debye)
 q only:       -0.088      -0.081      -0.044
   full:       -0.079      -0.065      -0.038       0.277

           -------------------------------------------------
          | TOTAL ENERGY              -39.776106621710 Eh   |
          | GRADIENT NORM               0.006933839401 Eh/α |
          | HOMO-LUMO GAP               4.830119512162 eV   |
           -------------------------------------------------

 * finished run on 2024/02/12 at 14:13:52.345
