                         Program Version 5.0.4 -  RELEASE  -
|  1> # ORCA 5.0.4 - /users/bwb16179/postgrad/2024_06/pKa_Reviewer_Comments/Gas_Z=1/5_prot.inp # write input file
|  2> # Basic Mode
|  3> #
|  4> ! Opt Freq wB97X Def2-TZVP D4 SlowConv TightSCF Defgrid2 Def2/J RIJCOSX
|  5>
|  6> %PAL NPROCS 4 END
|  7>
|  8> %maxcore 4500
|  9>
| 10> %geom
| 11> Maxiter 150
| 12> END
| 13>
| 14> * xyzfile 1 1 5_prot.xyz
| 15>
| 16>                          ****END OF INPUT****
 Total Charge           Charge          ....    1
 Multiplicity           Mult            ....    1
 Number of Electrons    NEL             ....  100
Dispersion correction           -0.005579115
FINAL SINGLE POINT ENERGY      -541.192389741372
Dispersion correction            ... Starting D4
Dispersion correction           -0.005592839
FINAL SINGLE POINT ENERGY      -541.193849622352
Dispersion correction            ... Starting D4
Dispersion correction           -0.005593558
FINAL SINGLE POINT ENERGY      -541.193855989522
Dispersion correction            ... Starting D4
FINAL SINGLE POINT ENERGY      -541.193855744812
Dispersion correction           -0.005593655
FINAL SINGLE POINT ENERGY      -541.193853007085
Dispersion correction            ... Starting D4
Dispersion correction           -0.005593576
FINAL SINGLE POINT ENERGY      -541.193849559616
Dispersion correction            ... Starting D4
                    ***********************HURRAY********************

CARTESIAN COORDINATES (ANGSTROEM)
---------------------------------
  C     -0.186410    2.501926    0.072652
  C      0.145767   -2.504231    0.402355
  N     -0.095389    1.049466   -0.287038
  N      0.054291   -1.111628   -0.144744
  C     -0.031190    0.557839   -1.569416
  C      0.061422   -0.787240   -1.481023
  C     -0.041397    0.017627    0.547468
  H     -0.053893    1.194155   -2.436846
  H      0.133536   -1.528966   -2.257129
  H     -0.069953    0.085705    1.619450
  C      1.069551    3.189934   -0.455179
  C      1.448814   -3.116825   -0.103604
  C     -1.068456   -3.281511   -0.098334
  C     -1.445412    3.066726   -0.578602
  H      1.146584    3.115396   -1.540852
  H      1.467619   -3.194672   -1.191449
  H     -1.095290   -3.334235   -1.187634
  H     -1.410464    2.990821   -1.666170
  H      1.034719    4.248534   -0.197908
  H      1.551160   -4.124122    0.299915
  H     -1.023192   -4.302280    0.280994
  H     -1.535700    4.123185   -0.326292
  H      1.969405    2.760487   -0.012061
  H      2.310493   -2.530255    0.219048
  H     -1.997082   -2.828113    0.251846
  H     -2.338894    2.552659   -0.221038
  C     -0.268232    2.637185    1.586909
  C      0.147351   -2.444155    1.923491
  H     -0.338056    3.695586    1.834021
  H      0.221410   -3.460616    2.307458
  H     -1.155798    2.148774    1.994250
  H     -0.776068   -2.015286    2.318155
  H      1.003551   -1.887290    2.309642
  H      0.623677    2.246234    2.080777

 Multiplicity           Mult            ....    1
 Number of Electrons    NEL             ....  100
 Basis Dimension        Dim             ....  529

ORBITAL ENERGIES
----------------

  NO   OCC          E(Eh)            E(eV)
   0   2.0000     -14.630560      -398.1178
   1   2.0000     -14.630525      -398.1168
   2   2.0000     -10.502753      -285.7945
   3   2.0000     -10.465109      -284.7701
   4   2.0000     -10.465082      -284.7693
   5   2.0000     -10.453412      -284.4518
   6   2.0000     -10.452665      -284.4315
   7   2.0000     -10.388223      -282.6779
   8   2.0000     -10.388191      -282.6771
   9   2.0000     -10.381546      -282.4962
  10   2.0000     -10.381415      -282.4927
  11   2.0000     -10.381407      -282.4924
  12   2.0000     -10.381336      -282.4905
  13   2.0000      -1.357220       -36.9318
  14   2.0000      -1.237762       -33.6812
  15   2.0000      -1.118624       -30.4393
  16   2.0000      -1.072680       -29.1891
  17   2.0000      -1.065640       -28.9975
  18   2.0000      -0.972287       -26.4573
  19   2.0000      -0.966544       -26.3010
  20   2.0000      -0.961113       -26.1532
  21   2.0000      -0.960467       -26.1356
  22   2.0000      -0.928717       -25.2717
  23   2.0000      -0.905354       -24.6359
  24   2.0000      -0.869120       -23.6500
  25   2.0000      -0.837673       -22.7942
  26   2.0000      -0.781581       -21.2679
  27   2.0000      -0.764192       -20.7947
  28   2.0000      -0.738084       -20.0843
  29   2.0000      -0.725412       -19.7395
  30   2.0000      -0.723472       -19.6867
  31   2.0000      -0.713750       -19.4221
  32   2.0000      -0.709231       -19.2992
  33   2.0000      -0.688386       -18.7319
  34   2.0000      -0.687162       -18.6986
  35   2.0000      -0.678622       -18.4663
  36   2.0000      -0.651374       -17.7248
  37   2.0000      -0.632488       -17.2109
  38   2.0000      -0.632407       -17.2087
  39   2.0000      -0.629346       -17.1254
  40   2.0000      -0.627709       -17.0808
  41   2.0000      -0.616524       -16.7765
  42   2.0000      -0.612888       -16.6775
  43   2.0000      -0.612590       -16.6694
  44   2.0000      -0.598545       -16.2872
  45   2.0000      -0.585107       -15.9216
  46   2.0000      -0.584600       -15.9078
  47   2.0000      -0.582266       -15.8443
  48   2.0000      -0.542366       -14.7585
  49   2.0000      -0.512390       -13.9428
  50   0.0000      -0.078482        -2.1356
  51   0.0000      -0.046478        -1.2647
  52   0.0000      -0.026541        -0.7222
  53   0.0000      -0.003419        -0.0930
  54   0.0000       0.004630         0.1260

MULLIKEN ATOMIC CHARGES
-----------------------
   0 C :   -0.076317
   1 C :   -0.075023
   2 N :    0.028762
   3 N :    0.028965
   4 C :   -0.104111
   5 C :   -0.105166
   6 C :    0.048429
   7 H :    0.223970
   8 H :    0.223758
   9 H :    0.249210
  10 C :   -0.338728
  11 C :   -0.339623
  12 C :   -0.338346
  13 C :   -0.338820
  14 H :    0.135689
  15 H :    0.134579
  16 H :    0.135584
  17 H :    0.134313
  18 H :    0.159259
  19 H :    0.159221
  20 H :    0.159035
  21 H :    0.159134
  22 H :    0.145870
  23 H :    0.146979
  24 H :    0.146165
  25 H :    0.147274
  26 C :   -0.404407
  27 C :   -0.405754
  28 H :    0.173624
  29 H :    0.173675
  30 H :    0.155201
  31 H :    0.152223
  32 H :    0.154446
  33 H :    0.150930
Sum of atomic charges:    1.0000000

LOEWDIN ATOMIC CHARGES
----------------------
   0 C :   -0.341423
   1 C :   -0.341393
   2 N :    0.321852
   3 N :    0.321866
   4 C :   -0.147883
   5 C :   -0.147743
   6 C :   -0.154625
   7 H :    0.158775
   8 H :    0.158711
   9 H :    0.163838
  10 C :   -0.234775
  11 C :   -0.234979
  12 C :   -0.234653
  13 C :   -0.234909
  14 H :    0.129097
  15 H :    0.128699
  16 H :    0.128989
  17 H :    0.128610
  18 H :    0.142136
  19 H :    0.142259
  20 H :    0.142138
  21 H :    0.142325
  22 H :    0.132933
  23 H :    0.133328
  24 H :    0.133112
  25 H :    0.133398
  26 C :   -0.243598
  27 C :   -0.243761
  28 H :    0.146755
  29 H :    0.146781
  30 H :    0.131365
  31 H :    0.130843
  32 H :    0.131276
  33 H :    0.130657

  Mayer bond orders larger than 0.100000
B(  0-C ,  2-N ) :   0.8282 B(  0-C , 10-C ) :   1.0113 B(  0-C , 13-C ) :   1.0082
B(  0-C , 26-C ) :   0.9464 B(  1-C ,  3-N ) :   0.8285 B(  1-C , 11-C ) :   1.0080
B(  1-C , 12-C ) :   1.0109 B(  1-C , 27-C ) :   0.9457 B(  2-N ,  4-C ) :   1.1354
B(  2-N ,  6-C ) :   1.3856 B(  3-N ,  5-C ) :   1.1354 B(  3-N ,  6-C ) :   1.3858
B(  4-C ,  5-C ) :   1.7699 B(  4-C ,  7-H ) :   0.9167 B(  5-C ,  8-H ) :   0.9170
B(  6-C ,  9-H ) :   0.9151 B( 10-C , 14-H ) :   0.9556 B( 10-C , 18-H ) :   0.9715
B( 10-C , 22-H ) :   0.9629 B( 11-C , 15-H ) :   0.9567 B( 11-C , 19-H ) :   0.9709
B( 11-C , 23-H ) :   0.9635 B( 12-C , 16-H ) :   0.9559 B( 12-C , 20-H ) :   0.9714
B( 12-C , 24-H ) :   0.9625 B( 13-C , 17-H ) :   0.9567 B( 13-C , 21-H ) :   0.9708
B( 13-C , 25-H ) :   0.9633 B( 26-C , 28-H ) :   0.9667 B( 26-C , 30-H ) :   0.9672
B( 26-C , 33-H ) :   0.9651 B( 27-C , 29-H ) :   0.9668 B( 27-C , 31-H ) :   0.9656
B( 27-C , 32-H ) :   0.9667

Dispersion correction           -0.005593595
FINAL SINGLE POINT ENERGY      -541.193847206493

DIPOLE MOMENT
-------------
                                X             Y             Z
Electronic contribution:     -0.00415      -0.26868      -4.01090
Nuclear contribution   :      0.00673       0.27013       4.04353
                        -----------------------------------------
Total Dipole Moment    :      0.00258       0.00146       0.03263
                        -----------------------------------------
Magnitude (a.u.)       :      0.03276
Magnitude (Debye)      :      0.08328

Dispersion correction in the Hessian             ... Starting D4

VIBRATIONAL FREQUENCIES
-----------------------

Scaling factor for frequencies =  1.000000000  (already applied!)

   0:         0.00 cm**-1
   1:         0.00 cm**-1
   2:         0.00 cm**-1
   3:         0.00 cm**-1
   4:         0.00 cm**-1
   5:         0.00 cm**-1
   6:        20.11 cm**-1
   7:        41.43 cm**-1
   8:       122.80 cm**-1
   9:       142.30 cm**-1
  10:       153.72 cm**-1
  11:       224.49 cm**-1
  12:       233.99 cm**-1
  13:       263.97 cm**-1
  14:       267.21 cm**-1
  15:       277.56 cm**-1
  16:       285.00 cm**-1
  17:       315.85 cm**-1
  18:       328.92 cm**-1
  19:       342.37 cm**-1
  20:       351.51 cm**-1
  21:       360.18 cm**-1
  22:       366.98 cm**-1
  23:       400.44 cm**-1
  24:       444.13 cm**-1
  25:       466.83 cm**-1
  26:       468.49 cm**-1
  27:       519.45 cm**-1
  28:       570.33 cm**-1
  29:       628.55 cm**-1
  30:       686.32 cm**-1
  31:       691.40 cm**-1
  32:       787.24 cm**-1
  33:       838.16 cm**-1
  34:       842.04 cm**-1
  35:       894.15 cm**-1
  36:       923.38 cm**-1
  37:       950.85 cm**-1
  38:       951.49 cm**-1
  39:       958.91 cm**-1
  40:       960.58 cm**-1
  41:       978.46 cm**-1
  42:       981.83 cm**-1
  43:      1025.42 cm**-1
  44:      1042.95 cm**-1
  45:      1058.09 cm**-1
  46:      1060.34 cm**-1
  47:      1064.33 cm**-1
  48:      1065.62 cm**-1
  49:      1142.06 cm**-1
  50:      1153.44 cm**-1
  51:      1231.12 cm**-1
  52:      1240.74 cm**-1
  53:      1270.46 cm**-1
  54:      1273.52 cm**-1
  55:      1284.63 cm**-1
  56:      1287.55 cm**-1
  57:      1315.76 cm**-1
  58:      1343.56 cm**-1
  59:      1420.50 cm**-1
  60:      1421.89 cm**-1
  61:      1424.78 cm**-1
  62:      1426.32 cm**-1
  63:      1441.60 cm**-1
  64:      1450.53 cm**-1
  65:      1451.73 cm**-1
  66:      1457.62 cm**-1
  67:      1482.33 cm**-1
  68:      1484.03 cm**-1
  69:      1485.37 cm**-1
  70:      1486.08 cm**-1
  71:      1488.51 cm**-1
  72:      1491.16 cm**-1
  73:      1510.97 cm**-1
  74:      1511.46 cm**-1
  75:      1512.38 cm**-1
  76:      1513.87 cm**-1
  77:      1522.22 cm**-1
  78:      1524.96 cm**-1
  79:      1617.45 cm**-1
  80:      1635.95 cm**-1
  81:      3072.56 cm**-1
  82:      3072.71 cm**-1
  83:      3078.00 cm**-1
  84:      3078.18 cm**-1
  85:      3081.86 cm**-1
  86:      3081.89 cm**-1
  87:      3151.08 cm**-1
  88:      3151.31 cm**-1
  89:      3159.14 cm**-1
  90:      3159.27 cm**-1
  91:      3161.55 cm**-1
  92:      3162.08 cm**-1
  93:      3167.99 cm**-1
  94:      3168.45 cm**-1
  95:      3169.35 cm**-1
  96:      3169.74 cm**-1
  97:      3175.79 cm**-1
  98:      3176.12 cm**-1
  99:      3310.12 cm**-1
 100:      3327.38 cm**-1
 101:      3342.60 cm**-1

IR SPECTRUM
-----------

 Mode   freq       eps      Int      T**2         TX        TY        TZ
       cm**-1   L/(mol*cm) km/mol    a.u.
----------------------------------------------------------------------------
  6:     20.11   0.000000    0.00  0.000001  (-0.000406 -0.000054 -0.000778)
  7:     41.43   0.000000    0.00  0.000000  ( 0.000276 -0.000353  0.000177)
  8:    122.80   0.000048    0.24  0.000122  ( 0.011053  0.000551 -0.000065)
  9:    142.30   0.000013    0.07  0.000029  ( 0.000868  0.000221  0.005278)
 10:    153.72   0.000000    0.00  0.000001  ( 0.000639  0.000513  0.000406)
 11:    224.49   0.000002    0.01  0.000003  ( 0.001480 -0.000197 -0.000538)
 12:    233.99   0.000001    0.00  0.000001  (-0.000965 -0.000304  0.000449)
 13:    263.97   0.000001    0.00  0.000001  (-0.000051  0.000092 -0.000916)
 14:    267.21   0.000001    0.00  0.000001  ( 0.000634  0.000314  0.000346)
 15:    277.56   0.000013    0.07  0.000015  (-0.000423 -0.000764 -0.003796)
 16:    285.00   0.000005    0.02  0.000005  ( 0.000877 -0.001287  0.001718)
 17:    315.85   0.000000    0.00  0.000000  ( 0.000318  0.000096 -0.000083)
 18:    328.92   0.000002    0.01  0.000002  ( 0.001161 -0.000801  0.000436)
 19:    342.37   0.000050    0.25  0.000045  (-0.006716  0.000067 -0.000093)
 20:    351.51   0.000001    0.00  0.000001  (-0.000065  0.000004  0.000829)
 21:    360.18   0.000000    0.00  0.000000  ( 0.000289 -0.000272  0.000131)
 22:    366.98   0.000000    0.00  0.000000  ( 0.000228 -0.000537  0.000000)
 23:    400.44   0.000063    0.32  0.000049  (-0.000121  0.007007 -0.000452)
 24:    444.13   0.000194    0.98  0.000136  (-0.011672 -0.000081 -0.000329)
 25:    466.83   0.000002    0.01  0.000001  (-0.000126 -0.000774 -0.000736)
 26:    468.49   0.000077    0.39  0.000051  (-0.000349  0.000333  0.007136)
 27:    519.45   0.000198    1.00  0.000119  ( 0.000585 -0.010861  0.000657)
 28:    570.33   0.000219    1.11  0.000120  ( 0.000093 -0.000816 -0.010926)
 29:    628.55   0.002463   12.45  0.001223  ( 0.002576 -0.034796  0.002304)
 30:    686.32   0.005349   27.03  0.002432  (-0.049220 -0.002913 -0.001026)
 31:    691.40   0.000017    0.08  0.000008  (-0.002662  0.000658 -0.000077)
 32:    787.24   0.005620   28.40  0.002228  ( 0.047082  0.003070  0.001217)
 33:    838.16   0.000031    0.16  0.000012  ( 0.000148 -0.000770 -0.003312)
 34:    842.04   0.000211    1.07  0.000078  (-0.000546  0.008789 -0.000792)
 35:    894.15   0.003562   18.00  0.001243  (-0.035141 -0.002758 -0.000861)
 36:    923.38   0.000013    0.07  0.000004  (-0.002075 -0.000217  0.000083)
 37:    950.85   0.000264    1.33  0.000087  (-0.009092 -0.000654 -0.001856)
 38:    951.49   0.000155    0.79  0.000051  ( 0.006528 -0.000325  0.002874)
 39:    958.91   0.000263    1.33  0.000086  (-0.001842  0.001255  0.008985)
 40:    960.58   0.000141    0.71  0.000046  ( 0.002072  0.000697 -0.006402)
 41:    978.46   0.000010    0.05  0.000003  ( 0.001646  0.000323  0.000682)
 42:    981.83   0.000010    0.05  0.000003  ( 0.001647  0.000461 -0.000446)
 43:   1025.42   0.000293    1.48  0.000089  ( 0.000543 -0.009397  0.000734)
 44:   1042.95   0.000048    0.24  0.000014  ( 0.000076 -0.000116 -0.003792)
 45:   1058.09   0.000004    0.02  0.000001  (-0.000717 -0.000724  0.000195)
 46:   1060.34   0.000005    0.03  0.000002  ( 0.001102 -0.000539  0.000037)
 47:   1064.33   0.000023    0.12  0.000007  (-0.002608  0.000142  0.000025)
 48:   1065.62   0.000130    0.66  0.000038  (-0.006135 -0.000280 -0.000642)
 49:   1142.06   0.003018   15.25  0.000825  (-0.000281 -0.002881  0.028569)
 50:   1153.44   0.015032   75.97  0.004067  ( 0.004421 -0.063587  0.002016)
 51:   1231.12   0.000601    3.04  0.000152  (-0.000262  0.003395  0.011865)
 52:   1240.74   0.047245  238.75  0.011883  ( 0.006746 -0.108561  0.007197)
 53:   1270.46   0.000004    0.02  0.000001  (-0.000179  0.000677  0.000672)
 54:   1273.52   0.001241    6.27  0.000304  (-0.001309  0.017357 -0.001068)
 55:   1284.63   0.000055    0.28  0.000013  (-0.003521  0.000964  0.000043)
 56:   1287.55   0.002250   11.37  0.000545  (-0.023337 -0.000123 -0.000829)
 57:   1315.76   0.000000    0.00  0.000000  ( 0.000155  0.000212  0.000157)
 58:   1343.56   0.002601   13.15  0.000604  ( 0.000757 -0.001480 -0.024523)
 59:   1420.50   0.000476    2.41  0.000105  (-0.005311 -0.000464  0.008726)
 60:   1421.89   0.007190   36.34  0.001578  (-0.006653 -0.003379 -0.039017)
 61:   1424.78   0.002896   14.63  0.000634  ( 0.025055 -0.000099  0.002542)
 62:   1426.32   0.004988   25.21  0.001091  ( 0.031622  0.003436 -0.008926)
 63:   1441.60   0.001106    5.59  0.000239  (-0.000857  0.015443 -0.000472)
 64:   1450.53   0.000848    4.28  0.000182  ( 0.000221  0.013287 -0.002411)
 65:   1451.73   0.002192   11.08  0.000471  (-0.004747  0.021156  0.001072)
 66:   1457.62   0.001601    8.09  0.000343  ( 0.000748  0.000129  0.018496)
 67:   1482.33   0.000015    0.07  0.000003  (-0.001645 -0.000479 -0.000426)
 68:   1484.03   0.000016    0.08  0.000003  (-0.001632 -0.000812  0.000336)
 69:   1485.37   0.000003    0.02  0.000001  (-0.000648 -0.000412  0.000347)
 70:   1486.08   0.000008    0.04  0.000002  ( 0.000107 -0.000950  0.000927)
 71:   1488.51   0.000222    1.12  0.000046  ( 0.000264  0.005797 -0.003574)
 72:   1491.16   0.000218    1.10  0.000046  ( 0.000743 -0.006208 -0.002549)
 73:   1510.97   0.001602    8.09  0.000331  (-0.001002  0.007119 -0.016707)
 74:   1511.46   0.002822   14.26  0.000583  (-0.006028  0.005850  0.022631)
 75:   1512.38   0.001348    6.81  0.000278  ( 0.016217 -0.001442 -0.003616)
 76:   1513.87   0.003265   16.50  0.000673  (-0.024913 -0.003007 -0.006587)
 77:   1522.22   0.002571   12.99  0.000527  (-0.000020  0.022510  0.004505)
 78:   1524.96   0.001296    6.55  0.000265  (-0.000585  0.010585 -0.012359)
 79:   1617.45   0.021468  108.49  0.004142  (-0.003826  0.064102 -0.004272)
 80:   1635.95   0.002180   11.02  0.000416  ( 0.000577 -0.001161 -0.020353)
 81:   3072.56   0.001377    6.96  0.000140  ( 0.000212 -0.011544  0.002556)
 82:   3072.71   0.001879    9.50  0.000191  ( 0.000610 -0.002287 -0.013611)
 83:   3078.00   0.001118    5.65  0.000113  ( 0.010646  0.000044  0.000160)
 84:   3078.18   0.001542    7.79  0.000156  (-0.012475 -0.000816 -0.000068)
 85:   3081.86   0.000102    0.51  0.000010  (-0.000876 -0.000947  0.002936)
 86:   3081.89   0.000454    2.29  0.000046  ( 0.001100  0.000792  0.006642)
 87:   3151.08   0.002571   12.99  0.000255  ( 0.015935  0.000802  0.000036)
 88:   3151.31   0.000482    2.43  0.000048  (-0.006891 -0.000239 -0.000384)
 89:   3159.14   0.001461    7.38  0.000144  ( 0.010445 -0.000351  0.005924)
 90:   3159.27   0.001634    8.26  0.000161  (-0.012681 -0.000744 -0.000049)
 91:   3161.55   0.002679   13.54  0.000264  (-0.000378 -0.005192 -0.015405)
 92:   3162.08   0.003452   17.44  0.000341  ( 0.004026  0.002294 -0.017866)
 93:   3167.99   0.000498    2.52  0.000049  (-0.006986  0.000409  0.000367)
 94:   3168.45   0.000551    2.79  0.000054  (-0.007335 -0.000335  0.000627)
 95:   3169.35   0.000510    2.58  0.000050  (-0.000227  0.004270  0.005653)
 96:   3169.74   0.000805    4.07  0.000079  (-0.000835  0.002012 -0.008631)
 97:   3175.79   0.005033   25.43  0.000495  ( 0.001365 -0.022181 -0.000796)
 98:   3176.12   0.001265    6.39  0.000124  ( 0.000630 -0.009787  0.005304)
 99:   3310.12   0.001893    9.57  0.000178  (-0.000967  0.013268 -0.001216)
100:   3327.38   0.002558   12.93  0.000240  ( 0.000477 -0.001090 -0.015442)
101:   3342.60   0.002725   13.77  0.000254  (-0.000381  0.000741  0.015928)

--------------------------
THERMOCHEMISTRY AT 298.15K
--------------------------

Temperature         ... 298.15 K
Pressure            ... 1.00 atm
Total Mass          ... 181.30 AMU

Throughout the following assumptions are being made:
  (1) The electronic state is orbitally nondegenerate
  (2) There are no thermally accessible electronically excited states
  (3) Hindered rotations indicated by low frequency modes are not
      treated as such but are treated as vibrations and this may
      cause some error
  (4) All equations used are the standard statistical mechanics
      equations for an ideal gas
  (5) All vibrations are strictly harmonic

freq.      20.11  E(vib)   ...       0.56
freq.      41.43  E(vib)   ...       0.54
freq.     122.80  E(vib)   ...       0.43
freq.     142.30  E(vib)   ...       0.41
freq.     153.72  E(vib)   ...       0.40
freq.     224.49  E(vib)   ...       0.33
freq.     233.99  E(vib)   ...       0.32
freq.     263.97  E(vib)   ...       0.29
freq.     267.21  E(vib)   ...       0.29
freq.     277.56  E(vib)   ...       0.28
freq.     285.00  E(vib)   ...       0.28
freq.     315.85  E(vib)   ...       0.25
freq.     328.92  E(vib)   ...       0.24
freq.     342.37  E(vib)   ...       0.23
freq.     351.51  E(vib)   ...       0.23
freq.     360.18  E(vib)   ...       0.22
freq.     366.98  E(vib)   ...       0.22
freq.     400.44  E(vib)   ...       0.19
freq.     444.13  E(vib)   ...       0.17
freq.     466.83  E(vib)   ...       0.16
freq.     468.49  E(vib)   ...       0.16
freq.     519.45  E(vib)   ...       0.13
freq.     570.33  E(vib)   ...       0.11
freq.     628.55  E(vib)   ...       0.09
freq.     686.32  E(vib)   ...       0.07
freq.     691.40  E(vib)   ...       0.07
freq.     787.24  E(vib)   ...       0.05
freq.     838.16  E(vib)   ...       0.04
freq.     842.04  E(vib)   ...       0.04
freq.     894.15  E(vib)   ...       0.03
freq.     923.38  E(vib)   ...       0.03
freq.     950.85  E(vib)   ...       0.03
freq.     951.49  E(vib)   ...       0.03
freq.     958.91  E(vib)   ...       0.03
freq.     960.58  E(vib)   ...       0.03
freq.     978.46  E(vib)   ...       0.03
freq.     981.83  E(vib)   ...       0.02
freq.    1025.42  E(vib)   ...       0.02
freq.    1042.95  E(vib)   ...       0.02
freq.    1058.09  E(vib)   ...       0.02
freq.    1060.34  E(vib)   ...       0.02
freq.    1064.33  E(vib)   ...       0.02
freq.    1065.62  E(vib)   ...       0.02
freq.    1142.06  E(vib)   ...       0.01
freq.    1153.44  E(vib)   ...       0.01
freq.    1231.12  E(vib)   ...       0.01
freq.    1240.74  E(vib)   ...       0.01
freq.    1270.46  E(vib)   ...       0.01
freq.    1273.52  E(vib)   ...       0.01
freq.    1284.63  E(vib)   ...       0.01
freq.    1287.55  E(vib)   ...       0.01
freq.    1315.76  E(vib)   ...       0.01
freq.    1343.56  E(vib)   ...       0.01
freq.    1420.50  E(vib)   ...       0.00
freq.    1421.89  E(vib)   ...       0.00
freq.    1424.78  E(vib)   ...       0.00
freq.    1426.32  E(vib)   ...       0.00
freq.    1441.60  E(vib)   ...       0.00
freq.    1450.53  E(vib)   ...       0.00
freq.    1451.73  E(vib)   ...       0.00
freq.    1457.62  E(vib)   ...       0.00
freq.    1482.33  E(vib)   ...       0.00
freq.    1484.03  E(vib)   ...       0.00
freq.    1485.37  E(vib)   ...       0.00
freq.    1486.08  E(vib)   ...       0.00
freq.    1488.51  E(vib)   ...       0.00
freq.    1491.16  E(vib)   ...       0.00
freq.    1510.97  E(vib)   ...       0.00
freq.    1511.46  E(vib)   ...       0.00
freq.    1512.38  E(vib)   ...       0.00
freq.    1513.87  E(vib)   ...       0.00
freq.    1522.22  E(vib)   ...       0.00
freq.    1524.96  E(vib)   ...       0.00
freq.    1617.45  E(vib)   ...       0.00
freq.    1635.95  E(vib)   ...       0.00
freq.    3072.56  E(vib)   ...       0.00
freq.    3072.71  E(vib)   ...       0.00
freq.    3078.00  E(vib)   ...       0.00
freq.    3078.18  E(vib)   ...       0.00
freq.    3081.86  E(vib)   ...       0.00
freq.    3081.89  E(vib)   ...       0.00
freq.    3151.08  E(vib)   ...       0.00
freq.    3151.31  E(vib)   ...       0.00
freq.    3159.14  E(vib)   ...       0.00
freq.    3159.27  E(vib)   ...       0.00
freq.    3161.55  E(vib)   ...       0.00
freq.    3162.08  E(vib)   ...       0.00
freq.    3167.99  E(vib)   ...       0.00
freq.    3168.45  E(vib)   ...       0.00
freq.    3169.35  E(vib)   ...       0.00
freq.    3169.74  E(vib)   ...       0.00
freq.    3175.79  E(vib)   ...       0.00
freq.    3176.12  E(vib)   ...       0.00
freq.    3310.12  E(vib)   ...       0.00
freq.    3327.38  E(vib)   ...       0.00
freq.    3342.60  E(vib)   ...       0.00

------------
INNER ENERGY
------------

The inner energy is: U= E(el) + E(ZPE) + E(vib) + E(rot) + E(trans)
    E(el)   - is the total energy from the electronic structure calculation
              = E(kin-el) + E(nuc-el) + E(el-el) + E(nuc-nuc)
    E(ZPE)  - the the zero temperature vibrational energy from the frequency calculation
    E(vib)  - the the finite temperature correction to E(ZPE) due to population
              of excited vibrational states
    E(rot)  - is the rotational thermal energy
    E(trans)- is the translational thermal energy

Summary of contributions to the inner energy U:
Electronic energy                ...   -541.19384721 Eh
Zero point energy                ...      0.31229097 Eh     195.97 kcal/mol
Thermal vibrational correction   ...      0.01165168 Eh       7.31 kcal/mol
Thermal rotational correction    ...      0.00141627 Eh       0.89 kcal/mol
Thermal translational correction ...      0.00141627 Eh       0.89 kcal/mol
-----------------------------------------------------------------------
Total thermal energy                   -540.86707201 Eh

Summary of corrections to the electronic energy:
(perhaps to be used in another calculation)
Total thermal correction                  0.01448423 Eh       9.09 kcal/mol
Non-thermal (ZPE) correction              0.31229097 Eh     195.97 kcal/mol
-----------------------------------------------------------------------
Total correction                          0.32677520 Eh     205.05 kcal/mol

--------
ENTHALPY
--------

The enthalpy is H = U + kB*T
                kB is Boltzmann's constant
Total free energy                 ...   -540.86707201 Eh
Thermal Enthalpy correction       ...      0.00094421 Eh       0.59 kcal/mol
-----------------------------------------------------------------------
Total Enthalpy                    ...   -540.86612780 Eh

Note: Only C1 symmetry has been detected, increase convergence thresholds
      if your molecule has a higher symmetry. Symmetry factor of 1.0 is
      used for the rotational entropy correction.

Rotational constants in cm-1:     0.055676     0.014820     0.013854

                             ****ORCA TERMINATED NORMALLY****
TOTAL RUN TIME: 0 days 1 hours 33 minutes 14 seconds 491 msec
