   * xtb version 6.6.1 (8d0f1dd) compiled by 'conda@1efc2f54142f' on 2023-08-01
          program call               : xtb struc.xyz --gfn2 --ceasefiles --opt

   ID    Z sym.   atoms
    1    6 C      1, 2, 5-7, 11-14, 27, 28
    2    7 N      3, 4
    3    1 H      8-10, 15-26, 29-34

          :  Hamiltonian                  GFN2-xTB          :
 * total energy  :   -39.7392807 Eh     change       -0.1768505E-08 Eh
 * total energy  :   -39.7622137 Eh     change       -0.2293292E-01 Eh
 * total energy  :   -39.7697898 Eh     change       -0.7576151E-02 Eh
 * total energy  :   -39.7734080 Eh     change       -0.3618189E-02 Eh
 * total energy  :   -39.7753497 Eh     change       -0.1941694E-02 Eh
 * total energy  :   -39.7764025 Eh     change       -0.1052781E-02 Eh
 * total energy  :   -39.7770697 Eh     change       -0.6672389E-03 Eh
 * total energy  :   -39.7775484 Eh     change       -0.4786897E-03 Eh
   *** GEOMETRY OPTIMIZATION CONVERGED AFTER 8 ITERATIONS ***

 final structure:
================
34
 xtb: 6.6.1 (8d0f1dd)
C           -2.15255426116590        0.53448323096456        1.20324837066256
C            2.28250277290749       -0.35970557388004       -0.89732164475023
N           -1.10447587701447        0.17669891467359        0.22987844380128
N            0.82943661367885       -0.19733894116559       -0.70530192161961
C           -1.34027623690192       -0.38501606709333       -0.98740173172678
C           -0.13337362127659       -0.62074151975244       -1.56965896570134
C            0.21356150576412        0.27883073108916        0.37387386496681
H           -2.31754181886418       -0.59570558180150       -1.36398914118322
H            0.06410899545767       -1.04315769048629       -2.52960385167938
H            0.70803795955542        0.69167531629016        1.22762856955330
C           -1.51028013287265        1.03983139402224        2.49086778973886
C            3.03181950345112        0.64251328897946       -0.02571425011140
C            2.61097215413974       -0.13163657576117       -2.37212911205909
C           -3.03251154900989        1.62593863587694        0.59422824107266
H           -0.93777951692085        1.94402813653874        2.32065819944601
H            2.92670788554426        0.41441697697446        1.03357536797112
H            2.17671071966359        0.79920338603481       -2.72856945546995
H           -2.49579823820684        2.57105396319494        0.52141233548500
H           -2.29404558012444        1.28145454607599        3.20031141302565
H            2.70745694750899        1.66080117909962       -0.21223229894959
H            3.68880295094258       -0.06988439610265       -2.49943505409395
H           -3.90416006032117        1.77473379558832        1.23037171933984
H           -0.87810397453644        0.28205215922841        2.94482018546352
H            4.09147039642050        0.58508811132409       -0.26298429749325
H            2.26082195500346       -0.95403011362284       -2.99134503677032
H           -3.38739498673833        1.35007877824752       -0.39657195834170
C           -2.97016691576201       -0.73036281078794        1.47818876401772
C            2.63732431069023       -1.78987842616719       -0.47694971407713
H           -3.56835727092708       -0.59125768058098        2.37762815898496
H            2.07496237678915       -2.52092569929834       -1.05037216915337
H           -3.64613655795961       -0.95568404602656        0.65498011073607
H            2.43714362924646       -1.94497817144892        0.58063462154966
H            3.69533658197952       -1.96183310872533       -0.65712130378702
H           -2.31857203134067       -1.59150528230184        1.63825974145238

          :  Hamiltonian                  GFN2-xTB          :
         :: total energy             -39.777548411819 Eh    ::
         :: gradient norm              0.009387648331 Eh/a0 ::
         :: HOMO-LUMO gap              4.863373678960 eV    ::
         :: SCC energy               -40.387610912494 Eh    ::
         :: -> dispersion             -0.027855700324 Eh    ::
         :: repulsion energy           0.609793232551 Eh    ::

    * Orbital Energies and Occupations

         #    Occupation            Energy/Eh            Energy/eV
      -------------------------------------------------------------
         1        2.0000           -0.8779680             -23.8907
       ...           ...                  ...                  ...
        25        2.0000           -0.6001717             -16.3315
        26        2.0000           -0.5996545             -16.3174
        27        2.0000           -0.5987189             -16.2920
        28        2.0000           -0.5977961             -16.2669
        29        2.0000           -0.5928716             -16.1329
        30        2.0000           -0.5905378             -16.0694
        31        2.0000           -0.5894280             -16.0392
        32        2.0000           -0.5892050             -16.0331
        33        2.0000           -0.5809488             -15.8084
        34        2.0000           -0.5783795             -15.7385
        35        2.0000           -0.5774607             -15.7135
        36        2.0000           -0.5728496             -15.5880
        37        2.0000           -0.5708581             -15.5338 (HOMO)
        38                         -0.3921324             -10.6705 (LUMO)
        39                         -0.3567144              -9.7067
        40                         -0.1966378              -5.3508
        41                         -0.1458067              -3.9676
        42                         -0.0719203              -1.9571
        43                         -0.0593653              -1.6154
        44                         -0.0583290              -1.5872
        45                         -0.0527726              -1.4360
        46                         -0.0471022              -1.2817
        47                         -0.0359084              -0.9771
        48                         -0.0331401              -0.9018
       ...                                ...                  ...
        73                          0.4726465              12.8614
      -------------------------------------------------------------
                  HL-Gap            0.1787257 Eh            4.8634 eV

     #   Z          covCN         q      C6AA      α(0)
     1   6 C        3.836     0.075    19.300     6.250
     2   6 C        3.836     0.075    19.302     6.250
     3   7 N        2.869     0.047    20.413     6.710
     4   7 N        2.868     0.047    20.422     6.712
     5   6 C        3.080    -0.006    28.082     8.688
     6   6 C        3.081    -0.006    28.093     8.689
     7   6 C        3.114     0.050    26.721     8.468
     8   1 H        0.927     0.099     1.795     2.095
     9   1 H        0.927     0.101     1.775     2.083
    10   1 H        0.927     0.111     1.685     2.030
    11   6 C        3.760    -0.133    23.109     6.853
    12   6 C        3.760    -0.132    23.093     6.851
    13   6 C        3.759    -0.130    23.046     6.844
    14   6 C        3.759    -0.128    23.012     6.839
    15   1 H        0.925     0.058     2.224     2.332
    16   1 H        0.925     0.056     2.247     2.344
    17   1 H        0.925     0.060     2.198     2.318
    18   1 H        0.925     0.060     2.194     2.316
    19   1 H        0.925     0.082     1.961     2.190
    20   1 H        0.925     0.060     2.205     2.322
    21   1 H        0.925     0.078     1.995     2.209
    22   1 H        0.925     0.080     1.982     2.202
    23   1 H        0.925     0.057     2.231     2.336
    24   1 H        0.925     0.081     1.970     2.195
    25   1 H        0.925     0.062     2.172     2.304
    26   1 H        0.925     0.059     2.214     2.327
    27   6 C        3.759    -0.128    23.008     6.838
    28   6 C        3.760    -0.127    22.987     6.835
    29   1 H        0.925     0.079     1.993     2.207
    30   1 H        0.925     0.059     2.211     2.325
    31   1 H        0.925     0.064     2.157     2.297
    32   1 H        0.925     0.056     2.251     2.346
    33   1 H        0.925     0.081     1.971     2.195
    34   1 H        0.924     0.054     2.265     2.354

molecular dipole:
                 x           y           z       tot (Debye)
 q only:       -0.099       0.008      -0.112
   full:       -0.096       0.009      -0.106       0.364

           -------------------------------------------------
          | TOTAL ENERGY              -39.777548411819 Eh   |
          | GRADIENT NORM               0.009387648331 Eh/α |
          | HOMO-LUMO GAP               4.863373678960 eV   |
           -------------------------------------------------

 * finished run on 2024/02/12 at 14:13:52.116
