                         Program Version 5.0.4 -  RELEASE  -
|  1> ! SP wB97X D4 def2-SVP def2/J defgrid2
|  2> %maxcore 3000
|  3> %PAL NPROCS 4 END
|  4> * xyz 1 1
|  5> C 0.9881 -0.0911 -1.3581
|  6> C -0.163 -0.8086 -1.4681
|  7> N 1.052 0.3695 -0.0612
|  8> N -0.779 -0.7714 -0.2363
|  9> C -0.0253 -0.0549 0.5932
| 10> H 1.7643 0.1335 -2.0871
| 11> H -0.5992 -1.3369 -2.3135
| 12> C 2.1246 1.1829 0.4997
| 13> C -2.0447 -1.4147 0.0981
| 14> H 3.0653 0.6187 0.4702
| 15> H 1.8731 1.4283 1.5378
| 16> H 2.2225 2.1065 -0.0845
| 17> H -0.2547 0.1516 1.6388
| 18> H -1.9399 -2.5021 -0.0048
| 19> H -2.827 -1.0484 -0.5784
| 20> H -2.3041 -1.164 1.1333
| 21> **                         ****END OF INPUT****

CARTESIAN COORDINATES (ANGSTROEM)
---------------------------------
  C      0.988100   -0.091100   -1.358100
  C     -0.163000   -0.808600   -1.468100
  N      1.052000    0.369500   -0.061200
  N     -0.779000   -0.771400   -0.236300
  C     -0.025300   -0.054900    0.593200
  H      1.764300    0.133500   -2.087100
  H     -0.599200   -1.336900   -2.313500
  C      2.124600    1.182900    0.499700
  C     -2.044700   -1.414700    0.098100
  H      3.065300    0.618700    0.470200
  H      1.873100    1.428300    1.537800
  H      2.222500    2.106500   -0.084500
  H     -0.254700    0.151600    1.638800
  H     -1.939900   -2.502100   -0.004800
  H     -2.827000   -1.048400   -0.578400
  H     -2.304100   -1.164000    1.133300

 Total Charge           Charge          ....    1
 Multiplicity           Mult            ....    1
 Number of Electrons    NEL             ....   52
 Basis Dimension        Dim             ....  143

ORBITAL ENERGIES
----------------

  NO   OCC          E(Eh)            E(eV)
   0   2.0000     -14.676573      -399.3699
   1   2.0000     -14.676534      -399.3688
   2   2.0000     -10.548802      -287.0475
   3   2.0000     -10.495135      -285.5871
   4   2.0000     -10.494555      -285.5713
   5   2.0000     -10.486213      -285.3444
   6   2.0000     -10.486165      -285.3430
   7   2.0000      -1.379708       -37.5438
   8   2.0000      -1.256135       -34.1812
   9   2.0000      -1.099395       -29.9160
  10   2.0000      -1.062862       -28.9219
  11   2.0000      -0.996861       -27.1260
  12   2.0000      -0.934648       -25.4331
  13   2.0000      -0.901508       -24.5313
  14   2.0000      -0.843582       -22.9550
  15   2.0000      -0.802098       -21.8262
  16   2.0000      -0.760212       -20.6864
  17   2.0000      -0.755496       -20.5581
  18   2.0000      -0.741560       -20.1789
  19   2.0000      -0.738728       -20.1018
  20   2.0000      -0.729102       -19.8399
  21   2.0000      -0.683133       -18.5890
  22   2.0000      -0.678963       -18.4755
  23   2.0000      -0.675023       -18.3683
  24   2.0000      -0.578429       -15.7398
  25   2.0000      -0.536910       -14.6101
  26   0.0000      -0.099925        -2.7191
  27   0.0000      -0.066528        -1.8103
  28   0.0000      -0.008042        -0.2188
  29   0.0000       0.004784         0.1302
  30   0.0000       0.020754         0.5648

MULLIKEN ATOMIC CHARGES
-----------------------
   0 C :    0.078497
   1 C :    0.078669
   2 N :   -0.222694
   3 N :   -0.223165
   4 C :    0.206625
   5 H :    0.107054
   6 H :    0.106963
   7 C :    0.060427
   8 C :    0.060543
   9 H :    0.110782
  10 H :    0.090818
  11 H :    0.109313
  12 H :    0.125186
  13 H :    0.110760
  14 H :    0.109114
  15 H :    0.091109
Sum of atomic charges:    1.0000000

LOEWDIN ATOMIC CHARGES
----------------------
   0 C :    0.030259
   1 C :    0.030339
   2 N :    0.092107
   3 N :    0.091957
   4 C :    0.112747
   5 H :    0.063216
   6 H :    0.063147
   7 C :    0.057041
   8 C :    0.057098
   9 H :    0.057991
  10 H :    0.053750
  11 H :    0.058015
  12 H :    0.062522
  13 H :    0.057965
  14 H :    0.057993
  15 H :    0.053854

  Mayer bond orders larger than 0.100000
B(  0-C ,  1-C ) :   1.6156 B(  0-C ,  2-N ) :   1.1756 B(  0-C ,  5-H ) :   0.9826
B(  1-C ,  3-N ) :   1.1757 B(  1-C ,  6-H ) :   0.9826 B(  2-N ,  4-C ) :   1.3593
B(  2-N ,  7-C ) :   0.8874 B(  3-N ,  4-C ) :   1.3591 B(  3-N ,  8-C ) :   0.8874
B(  4-C , 12-H ) :   0.9683 B(  7-C ,  9-H ) :   0.9722 B(  7-C , 10-H ) :   0.9724
B(  7-C , 11-H ) :   0.9722 B(  8-C , 13-H ) :   0.9722 B(  8-C , 14-H ) :   0.9722
B(  8-C , 15-H ) :   0.9724

Dispersion correction           -0.001653238
FINAL SINGLE POINT ENERGY      -304.931953464103

DIPOLE MOMENT
-------------
                                X             Y             Z
Electronic contribution:      0.32210      -0.28635      -1.47033
Nuclear contribution   :     -0.40022       0.35637       1.82533
                        -----------------------------------------
Total Dipole Moment    :     -0.07811       0.07001       0.35500
                        -----------------------------------------
Magnitude (a.u.)       :      0.37017
Magnitude (Debye)      :      0.94090

Rotational constants in cm-1:     0.227840     0.068833     0.053965
Rotational constants in MHz :  6830.471274  2063.557947  1617.820735

                             ****ORCA TERMINATED NORMALLY****
TOTAL RUN TIME: 0 days 0 hours 0 minutes 22 seconds 939 msec
