                         Program Version 5.0.4 -  RELEASE  -
|  1> ! SP wB97X D4 def2-SVP def2/J defgrid2
|  2> %maxcore 3000
|  3> %PAL NPROCS 4 END
|  4> * xyz 0 1
|  5> C -0.0 0.6778 -1.1936
|  6> C -0.0 -0.6778 -1.1936
|  7> N -0.0 1.0616 0.137
|  8> N -0.0 -1.0616 0.137
|  9> C -0.0 0.0 0.9872
| 10> H 0.0 1.3933 -2.0147
| 11> H -0.0 -1.3933 -2.0147
| 12> C 0.0 2.447 0.5658
| 13> C 0.0 -2.447 0.5658
| 14> H -0.8946 2.9683 0.194
| 15> H -0.8946 -2.9683 0.194
| 16> H 0.8946 -2.9683 0.194
| 17> H 0.8946 2.9683 0.194
| 18> H -0.0 2.4687 1.6621
| 19> H 0.0 -2.4687 1.6621
| 20> **                         ****END OF INPUT****

CARTESIAN COORDINATES (ANGSTROEM)
---------------------------------
  C     -0.000000    0.677800   -1.193600
  C     -0.000000   -0.677800   -1.193600
  N     -0.000000    1.061600    0.137000
  N     -0.000000   -1.061600    0.137000
  C     -0.000000    0.000000    0.987200
  H      0.000000    1.393300   -2.014700
  H     -0.000000   -1.393300   -2.014700
  C      0.000000    2.447000    0.565800
  C      0.000000   -2.447000    0.565800
  H     -0.894600    2.968300    0.194000
  H     -0.894600   -2.968300    0.194000
  H      0.894600   -2.968300    0.194000
  H      0.894600    2.968300    0.194000
  H     -0.000000    2.468700    1.662100
  H      0.000000   -2.468700    1.662100

 Total Charge           Charge          ....    0
 Multiplicity           Mult            ....    1
 Number of Electrons    NEL             ....   52
 Basis Dimension        Dim             ....  138

ORBITAL ENERGIES
----------------

  NO   OCC          E(Eh)            E(eV)
   0   2.0000     -14.444357      -393.0509
   1   2.0000     -14.444354      -393.0509
   2   2.0000     -10.304133      -280.3897
   3   2.0000     -10.304102      -280.3889
   4   2.0000     -10.294838      -280.1368
   5   2.0000     -10.294257      -280.1210
   6   2.0000     -10.264388      -279.3082
   7   2.0000      -1.142412       -31.0866
   8   2.0000      -1.031114       -28.0580
   9   2.0000      -0.892698       -24.2915
  10   2.0000      -0.843589       -22.9552
  11   2.0000      -0.798953       -21.7406
  12   2.0000      -0.709074       -19.2949
  13   2.0000      -0.678612       -18.4660
  14   2.0000      -0.633206       -17.2304
  15   2.0000      -0.586782       -15.9671
  16   2.0000      -0.560347       -15.2478
  17   2.0000      -0.551541       -15.0082
  18   2.0000      -0.541195       -14.7267
  19   2.0000      -0.537066       -14.6143
  20   2.0000      -0.493314       -13.4238
  21   2.0000      -0.484352       -13.1799
  22   2.0000      -0.483596       -13.1593
  23   2.0000      -0.368841       -10.0367
  24   2.0000      -0.320567        -8.7231
  25   2.0000      -0.303387        -8.2556
  26   0.0000       0.118695         3.2299
  27   0.0000       0.145842         3.9686
  28   0.0000       0.161327         4.3899
  29   0.0000       0.163877         4.4593
  30   0.0000       0.190463         5.1828

MULLIKEN ATOMIC CHARGES
-----------------------
   0 C :    0.032343
   1 C :    0.032340
   2 N :   -0.245117
   3 N :   -0.245116
   4 C :   -0.123548
   5 H :    0.029853
   6 H :    0.029854
   7 C :    0.105010
   8 C :    0.105009
   9 H :    0.039786
  10 H :    0.039786
  11 H :    0.039786
  12 H :    0.039786
  13 H :    0.060115
  14 H :    0.060115
Sum of atomic charges:   -0.0000000

LOEWDIN ATOMIC CHARGES
----------------------
   0 C :   -0.037615
   1 C :   -0.037615
   2 N :    0.015444
   3 N :    0.015444
   4 C :   -0.253617
   5 H :    0.027639
   6 H :    0.027639
   7 C :    0.031489
   8 C :    0.031489
   9 H :    0.025001
  10 H :    0.025001
  11 H :    0.025001
  12 H :    0.025001
  13 H :    0.039850
  14 H :    0.039850

  Mayer bond orders larger than 0.100000
B(  0-C ,  1-C ) :   1.6444 B(  0-C ,  2-N ) :   1.1260 B(  0-C ,  5-H ) :   0.9886
B(  1-C ,  3-N ) :   1.1260 B(  1-C ,  6-H ) :   0.9886 B(  2-N ,  4-C ) :   1.2241
B(  2-N ,  7-C ) :   0.9560 B(  3-N ,  4-C ) :   1.2241 B(  3-N ,  8-C ) :   0.9560
B(  7-C ,  9-H ) :   0.9797 B(  7-C , 12-H ) :   0.9797 B(  7-C , 13-H ) :   0.9728
B(  8-C , 10-H ) :   0.9797 B(  8-C , 11-H ) :   0.9797 B(  8-C , 14-H ) :   0.9728

Dispersion correction           -0.001728045
FINAL SINGLE POINT ENERGY      -304.499860547741

DIPOLE MOMENT
-------------
                                X             Y             Z
Electronic contribution:      0.00000      -0.00000      -1.00539
Nuclear contribution   :      0.00000       0.00000       0.01433
                        -----------------------------------------
Total Dipole Moment    :      0.00000      -0.00000      -0.99106
                        -----------------------------------------
Magnitude (a.u.)       :      0.99106
Magnitude (Debye)      :      2.51907

Rotational constants in cm-1:     0.236528     0.069833     0.055051
Rotational constants in MHz :  7090.939637  2093.545065  1650.399960

                             ****ORCA TERMINATED NORMALLY****
TOTAL RUN TIME: 0 days 0 hours 0 minutes 24 seconds 735 msec
