                         Program Version 5.0.4 -  RELEASE  -
|  1> # ORCAForces - ../2023_04/pKa_prediction/extra_carbenes/Water/10_Water.inp
|  2> # Basic Mode
|  3> #
|  4> ! Opt FREQ wB97X D4 Def2-SVP SlowConv TightSCF DEFGRID2 Def2/J RIJCOSX CPCM(Water)
|  5>
|  6> %maxcore 4500
|  7>
|  8> %PAL NPROCS 4 END
|  9>
| 10> %geom
| 11> Maxiter 150
| 12> END
| 13>
| 14> * xyzfile 0 1 10.xyz
| 15>
| 16>                          ****END OF INPUT****
 Total Charge           Charge          ....    0
 Multiplicity           Mult            ....    1
 Number of Electrons    NEL             ....   62
Dispersion correction           -0.002570583
FINAL SINGLE POINT ENERGY      -344.993052787640
Dispersion correction            ... Starting D4
Dispersion correction           -0.002578322
FINAL SINGLE POINT ENERGY      -344.993657442065
Dispersion correction            ... Starting D4
Dispersion correction           -0.002579223
FINAL SINGLE POINT ENERGY      -344.993691631319
Dispersion correction            ... Starting D4
Dispersion correction           -0.002579209
FINAL SINGLE POINT ENERGY      -344.993699436306
Dispersion correction            ... Starting D4
Dispersion correction           -0.002579053
FINAL SINGLE POINT ENERGY      -344.993700061799
Dispersion correction            ... Starting D4
                    ***********************HURRAY********************

CARTESIAN COORDINATES (ANGSTROEM)
---------------------------------
  C     -0.193162    1.051260    1.237464
  C      0.077463   -1.100366    0.000000
  C     -0.193163    1.051260   -1.237464
  C      0.355695    1.735233   -0.000000
  H     -1.266782    1.284192    1.368805
  H      0.324359    1.412433   -2.140797
  H      1.456429    1.669939   -0.000001
  N     -0.005065   -0.394546    1.141387
  N     -0.005065   -0.394546   -1.141387
  H     -1.266783    1.284191   -1.368804
  H      0.086611    2.801555   -0.000000
  H      0.324361    1.412433    2.140796
  C      0.003705   -1.091711    2.411059
  H      0.101295   -2.168274    2.225278
  H      0.843206   -0.756992    3.044936
  H     -0.932145   -0.909733    2.968241
  C      0.003705   -1.091711   -2.411059
  H      0.843208   -0.756994   -3.044935
  H      0.101293   -2.168274   -2.225278
  H     -0.932143   -0.909730   -2.968243

 Multiplicity           Mult            ....    1
 Number of Electrons    NEL             ....   62
 Basis Dimension        Dim             ....  172

ORBITAL ENERGIES
----------------

  NO   OCC          E(Eh)            E(eV)
   0   2.0000     -14.421035      -392.4163
   1   2.0000     -14.421029      -392.4161
   2   2.0000     -10.296176      -280.1732
   3   2.0000     -10.296174      -280.1731
   4   2.0000     -10.288569      -279.9662
   5   2.0000     -10.288546      -279.9656
   6   2.0000     -10.279143      -279.7097
   7   2.0000     -10.269409      -279.4448
   8   2.0000      -1.095500       -29.8101
   9   2.0000      -1.027952       -27.9720
  10   2.0000      -0.911286       -24.7973
  11   2.0000      -0.838759       -22.8238
  12   2.0000      -0.820358       -22.3231
  13   2.0000      -0.749838       -20.4041
  14   2.0000      -0.743531       -20.2325
  15   2.0000      -0.634272       -17.2594
  16   2.0000      -0.606606       -16.5066
  17   2.0000      -0.606380       -16.5004
  18   2.0000      -0.577161       -15.7053
  19   2.0000      -0.561176       -15.2704
  20   2.0000      -0.536519       -14.5994
  21   2.0000      -0.532742       -14.4967
  22   2.0000      -0.514184       -13.9917
  23   2.0000      -0.498274       -13.5587
  24   2.0000      -0.480329       -13.0704
  25   2.0000      -0.464842       -12.6490
  26   2.0000      -0.450631       -12.2623
  27   2.0000      -0.437311       -11.8998
  28   2.0000      -0.406320       -11.0565
  29   2.0000      -0.311433        -8.4745
  30   2.0000      -0.299774        -8.1573
  31   0.0000       0.125386         3.4119
  32   0.0000       0.148629         4.0444
  33   0.0000       0.169048         4.6000
  34   0.0000       0.189544         5.1578
  35   0.0000       0.200160         5.4466

MULLIKEN ATOMIC CHARGES
-----------------------
   0 C :    0.113455
   1 C :   -0.183769
   2 C :    0.113456
   3 C :   -0.061512
   4 H :    0.039803
   5 H :    0.041724
   6 H :    0.042202
   7 N :   -0.333280
   8 N :   -0.333280
   9 H :    0.039803
  10 H :    0.050312
  11 H :    0.041725
  12 C :    0.108304
  13 H :    0.031665
  14 H :    0.039550
  15 H :    0.035162
  16 C :    0.108303
  17 H :    0.039550
  18 H :    0.031665
  19 H :    0.035162
Sum of atomic charges:   -0.0000000

LOEWDIN ATOMIC CHARGES
----------------------
   0 C :    0.033070
   1 C :   -0.271243
   2 C :    0.033070
   3 C :   -0.047000
   4 H :    0.024361
   5 H :    0.030637
   6 H :    0.032218
   7 N :   -0.055640
   8 N :   -0.055640
   9 H :    0.024361
  10 H :    0.040949
  11 H :    0.030637
  12 C :    0.023086
  13 H :    0.023389
  14 H :    0.021888
  15 H :    0.021748
  16 C :    0.023086
  17 H :    0.021888
  18 H :    0.023389
  19 H :    0.021748

  Mayer bond orders larger than 0.100000
B(  0-C ,  3-C ) :   1.0709 B(  0-C ,  4-H ) :   0.9555 B(  0-C ,  7-N ) :   0.9202
B(  0-C , 11-H ) :   0.9538 B(  1-C ,  7-N ) :   1.2861 B(  1-C ,  8-N ) :   1.2861
B(  2-C ,  3-C ) :   1.0709 B(  2-C ,  5-H ) :   0.9538 B(  2-C ,  8-N ) :   0.9202
B(  2-C ,  9-H ) :   0.9555 B(  3-C ,  6-H ) :   0.9501 B(  3-C , 10-H ) :   0.9487
B(  7-N , 12-C ) :   0.9756 B(  8-N , 16-C ) :   0.9756 B( 12-C , 13-H ) :   0.9701
B( 12-C , 14-H ) :   0.9755 B( 12-C , 15-H ) :   0.9733 B( 16-C , 17-H ) :   0.9755
B( 16-C , 18-H ) :   0.9701 B( 16-C , 19-H ) :   0.9733

Dispersion correction           -0.002578952
FINAL SINGLE POINT ENERGY      -344.993699447222

DIPOLE MOMENT
-------------
                                X             Y             Z
Electronic contribution:      0.09904      -0.62749       0.00000
Nuclear contribution   :     -0.31663       2.27440       0.00000
                        -----------------------------------------
Total Dipole Moment    :     -0.21760       1.64692       0.00000
                        -----------------------------------------
Magnitude (a.u.)       :      1.66123
Magnitude (Debye)      :      4.22251

Dispersion correction in the Hessian             ... Starting D4

VIBRATIONAL FREQUENCIES
-----------------------

Scaling factor for frequencies =  1.000000000  (already applied!)

   0:         0.00 cm**-1
   1:         0.00 cm**-1
   2:         0.00 cm**-1
   3:         0.00 cm**-1
   4:         0.00 cm**-1
   5:         0.00 cm**-1
   6:        99.62 cm**-1
   7:       114.74 cm**-1
   8:       138.29 cm**-1
   9:       205.94 cm**-1
  10:       279.74 cm**-1
  11:       295.11 cm**-1
  12:       329.89 cm**-1
  13:       438.47 cm**-1
  14:       459.70 cm**-1
  15:       485.13 cm**-1
  16:       527.14 cm**-1
  17:       622.13 cm**-1
  18:       810.66 cm**-1
  19:       886.05 cm**-1
  20:       912.66 cm**-1
  21:       950.89 cm**-1
  22:      1040.89 cm**-1
  23:      1075.95 cm**-1
  24:      1087.09 cm**-1
  25:      1114.18 cm**-1
  26:      1121.11 cm**-1
  27:      1143.92 cm**-1
  28:      1159.37 cm**-1
  29:      1210.72 cm**-1
  30:      1240.66 cm**-1
  31:      1276.03 cm**-1
  32:      1278.86 cm**-1
  33:      1333.85 cm**-1
  34:      1352.89 cm**-1
  35:      1396.01 cm**-1
  36:      1412.78 cm**-1
  37:      1419.45 cm**-1
  38:      1429.46 cm**-1
  39:      1444.89 cm**-1
  40:      1450.94 cm**-1
  41:      1452.76 cm**-1
  42:      1460.44 cm**-1
  43:      1460.46 cm**-1
  44:      1466.76 cm**-1
  45:      1475.59 cm**-1
  46:      1509.49 cm**-1
  47:      1598.65 cm**-1
  48:      3038.25 cm**-1
  49:      3040.38 cm**-1
  50:      3043.75 cm**-1
  51:      3048.26 cm**-1
  52:      3086.79 cm**-1
  53:      3116.91 cm**-1
  54:      3117.50 cm**-1
  55:      3122.54 cm**-1
  56:      3124.70 cm**-1
  57:      3161.14 cm**-1
  58:      3202.16 cm**-1
  59:      3202.21 cm**-1

IR SPECTRUM
-----------

 Mode   freq       eps      Int      T**2         TX        TY        TZ
       cm**-1   L/(mol*cm) km/mol    a.u.
----------------------------------------------------------------------------
  6:     99.62   0.000009    0.05  0.000029  (-0.000001 -0.000000  0.005413)
  7:    114.74   0.001263    6.38  0.003434  (-0.057843 -0.009413 -0.000001)
  8:    138.29   0.000126    0.64  0.000285  ( 0.000004  0.000000 -0.016869)
  9:    205.94   0.001867    9.43  0.002829  ( 0.052980  0.004660  0.000000)
 10:    279.74   0.002226   11.25  0.002483  (-0.049827  0.000671 -0.000000)
 11:    295.11   0.000009    0.05  0.000010  (-0.000002 -0.000000  0.003126)
 12:    329.89   0.000805    4.07  0.000761  ( 0.019328  0.019689 -0.000000)
 13:    438.47   0.000280    1.41  0.000199  ( 0.000000  0.000000  0.014105)
 14:    459.70   0.000122    0.62  0.000083  (-0.004101 -0.008136 -0.000000)
 15:    485.13   0.005724   28.93  0.003682  (-0.000000  0.000000  0.060680)
 16:    527.14   0.000779    3.94  0.000461  ( 0.001600  0.021421 -0.000000)
 17:    622.13   0.000061    0.31  0.000031  (-0.003665 -0.004158 -0.000000)
 18:    810.66   0.000778    3.93  0.000300  ( 0.001539  0.017242 -0.000000)
 19:    886.05   0.001725    8.72  0.000607  (-0.000000  0.000000 -0.024647)
 20:    912.66   0.001341    6.78  0.000458  (-0.000000 -0.000000 -0.021411)
 21:    950.89   0.000189    0.96  0.000062  ( 0.007815 -0.001027 -0.000000)
 22:   1040.89   0.005250   26.53  0.001574  (-0.012804  0.037552  0.000000)
 23:   1075.95   0.000153    0.78  0.000044  (-0.000000  0.000000  0.006669)
 24:   1087.09   0.000343    1.73  0.000099  ( 0.000936  0.009882 -0.000000)
 25:   1114.18   0.001615    8.16  0.000452  (-0.018460 -0.010569  0.000001)
 26:   1121.11   0.005659   28.60  0.001575  ( 0.000000  0.000000  0.039690)
 27:   1143.92   0.000022    0.11  0.000006  ( 0.000000  0.000000  0.002471)
 28:   1159.37   0.001346    6.80  0.000362  ( 0.018017  0.006141  0.000000)
 29:   1210.72   0.000459    2.32  0.000118  (-0.000000  0.000000  0.010877)
 30:   1240.66   0.017917   90.55  0.004507  ( 0.000000  0.000000 -0.067132)
 31:   1276.03   0.004806   24.29  0.001175  ( 0.013983  0.031303 -0.000001)
 32:   1278.86   0.003336   16.86  0.000814  ( 0.000000  0.000001  0.028530)
 33:   1333.85   0.001132    5.72  0.000265  ( 0.008389 -0.013943 -0.000000)
 34:   1352.89   0.017861   90.26  0.004120  ( 0.000000  0.000000  0.064186)
 35:   1396.01   0.012507   63.21  0.002796  (-0.000000  0.000000 -0.052876)
 36:   1412.78   0.005337   26.97  0.001179  (-0.002888  0.034212  0.000000)
 37:   1419.45   0.007294   36.86  0.001603  ( 0.000000 -0.000000 -0.040044)
 38:   1429.46   0.002550   12.89  0.000557  (-0.006588  0.022656 -0.000001)
 39:   1444.89   0.001832    9.26  0.000396  (-0.019824 -0.001635  0.000000)
 40:   1450.94   0.001957    9.89  0.000421  ( 0.000002 -0.000000  0.020518)
 41:   1452.76   0.003630   18.34  0.000780  (-0.027570  0.004432  0.000001)
 42:   1460.44   0.006347   32.08  0.001356  ( 0.010462  0.035308 -0.000326)
 43:   1460.46   0.007593   38.37  0.001622  ( 0.000085  0.000286  0.040278)
 44:   1466.76   0.001916    9.68  0.000408  ( 0.000000  0.000000 -0.020188)
 45:   1475.59   0.000110    0.55  0.000023  ( 0.003717 -0.003058 -0.000000)
 46:   1509.49   0.003724   18.82  0.000770  (-0.009469  0.026083  0.000000)
 47:   1598.65   0.096504  487.69  0.018838  (-0.000000 -0.000000  0.137252)
 48:   3038.25   0.039022  197.20  0.004008  ( 0.000000 -0.000001  0.063309)
 49:   3040.38   0.002787   14.09  0.000286  ( 0.006719 -0.015522 -0.000002)
 50:   3043.75   0.010515   53.14  0.001078  ( 0.000001 -0.000001  0.032834)
 51:   3048.26   0.017158   86.71  0.001756  (-0.036288  0.020968  0.000001)
 52:   3086.79   0.003769   19.05  0.000381  (-0.015923 -0.011289  0.000000)
 53:   3116.91   0.002310   11.67  0.000231  ( 0.000004  0.000001 -0.015206)
 54:   3117.50   0.026049  131.64  0.002608  (-0.050344 -0.008544 -0.000001)
 55:   3122.54   0.004134   20.89  0.000413  (-0.000000  0.000000  0.020325)
 56:   3124.70   0.003338   16.87  0.000333  ( 0.013980  0.011743 -0.000000)
 57:   3161.14   0.005258   26.57  0.000519  (-0.016159  0.016060  0.000000)
 58:   3202.16   0.004277   21.61  0.000417  (-0.001393  0.020368 -0.000025)
 59:   3202.21   0.000614    3.10  0.000060  (-0.000005  0.000067  0.007738)

--------------------------
THERMOCHEMISTRY AT 298.15K
--------------------------

Temperature         ... 298.15 K
Pressure            ... 1.00 atm
Total Mass          ... 112.18 AMU

Throughout the following assumptions are being made:
  (1) The electronic state is orbitally nondegenerate
  (2) There are no thermally accessible electronically excited states
  (3) Hindered rotations indicated by low frequency modes are not
      treated as such but are treated as vibrations and this may
      cause some error
  (4) All equations used are the standard statistical mechanics
      equations for an ideal gas
  (5) All vibrations are strictly harmonic

freq.      99.62  E(vib)   ...       0.46
freq.     114.74  E(vib)   ...       0.44
freq.     138.29  E(vib)   ...       0.42
freq.     205.94  E(vib)   ...       0.35
freq.     279.74  E(vib)   ...       0.28
freq.     295.11  E(vib)   ...       0.27
freq.     329.89  E(vib)   ...       0.24
freq.     438.47  E(vib)   ...       0.17
freq.     459.70  E(vib)   ...       0.16
freq.     485.13  E(vib)   ...       0.15
freq.     527.14  E(vib)   ...       0.13
freq.     622.13  E(vib)   ...       0.09
freq.     810.66  E(vib)   ...       0.05
freq.     886.05  E(vib)   ...       0.04
freq.     912.66  E(vib)   ...       0.03
freq.     950.89  E(vib)   ...       0.03
freq.    1040.89  E(vib)   ...       0.02
freq.    1075.95  E(vib)   ...       0.02
freq.    1087.09  E(vib)   ...       0.02
freq.    1114.18  E(vib)   ...       0.01
freq.    1121.11  E(vib)   ...       0.01
freq.    1143.92  E(vib)   ...       0.01
freq.    1159.37  E(vib)   ...       0.01
freq.    1210.72  E(vib)   ...       0.01
freq.    1240.66  E(vib)   ...       0.01
freq.    1276.03  E(vib)   ...       0.01
freq.    1278.86  E(vib)   ...       0.01
freq.    1333.85  E(vib)   ...       0.01
freq.    1352.89  E(vib)   ...       0.01
freq.    1396.01  E(vib)   ...       0.00
freq.    1412.78  E(vib)   ...       0.00
freq.    1419.45  E(vib)   ...       0.00
freq.    1429.46  E(vib)   ...       0.00
freq.    1444.89  E(vib)   ...       0.00
freq.    1450.94  E(vib)   ...       0.00
freq.    1452.76  E(vib)   ...       0.00
freq.    1460.44  E(vib)   ...       0.00
freq.    1460.46  E(vib)   ...       0.00
freq.    1466.76  E(vib)   ...       0.00
freq.    1475.59  E(vib)   ...       0.00
freq.    1509.49  E(vib)   ...       0.00
freq.    1598.65  E(vib)   ...       0.00
freq.    3038.25  E(vib)   ...       0.00
freq.    3040.38  E(vib)   ...       0.00
freq.    3043.75  E(vib)   ...       0.00
freq.    3048.26  E(vib)   ...       0.00
freq.    3086.79  E(vib)   ...       0.00
freq.    3116.91  E(vib)   ...       0.00
freq.    3117.50  E(vib)   ...       0.00
freq.    3122.54  E(vib)   ...       0.00
freq.    3124.70  E(vib)   ...       0.00
freq.    3161.14  E(vib)   ...       0.00
freq.    3202.16  E(vib)   ...       0.00
freq.    3202.21  E(vib)   ...       0.00

------------
INNER ENERGY
------------

The inner energy is: U= E(el) + E(ZPE) + E(vib) + E(rot) + E(trans)
    E(el)   - is the total energy from the electronic structure calculation
              = E(kin-el) + E(nuc-el) + E(el-el) + E(nuc-nuc)
    E(ZPE)  - the the zero temperature vibrational energy from the frequency calculation
    E(vib)  - the the finite temperature correction to E(ZPE) due to population
              of excited vibrational states
    E(rot)  - is the rotational thermal energy
    E(trans)- is the translational thermal energy

Summary of contributions to the inner energy U:
Electronic energy                ...   -344.99369945 Eh
Zero point energy                ...      0.18059939 Eh     113.33 kcal/mol
Thermal vibrational correction   ...      0.00558312 Eh       3.50 kcal/mol
Thermal rotational correction    ...      0.00141627 Eh       0.89 kcal/mol
Thermal translational correction ...      0.00141627 Eh       0.89 kcal/mol
-----------------------------------------------------------------------
Total thermal energy                   -344.80468440 Eh

Summary of corrections to the electronic energy:
(perhaps to be used in another calculation)
Total thermal correction                  0.00841566 Eh       5.28 kcal/mol
Non-thermal (ZPE) correction              0.18059939 Eh     113.33 kcal/mol
-----------------------------------------------------------------------
Total correction                          0.18901505 Eh     118.61 kcal/mol

--------
ENTHALPY
--------

The enthalpy is H = U + kB*T
                kB is Boltzmann's constant
Total free energy                 ...   -344.80468440 Eh
Thermal Enthalpy correction       ...      0.00094421 Eh       0.59 kcal/mol
-----------------------------------------------------------------------
Total Enthalpy                    ...   -344.80374019 Eh

Note: Rotational entropy computed according to Herzberg
Infrared and Raman Spectra, Chapter V,1, Van Nostrand Reinhold, 1945
Point Group:  Cs, Symmetry Number:   1
Rotational constants in cm-1:     0.111006     0.059433     0.040820

Vibrational entropy computed according to the QRRHO of S. Grimme
Chem.Eur.J. 2012 18 9955

-------
ENTROPY
-------

The entropy contributions are T*S = T*(S(el)+S(vib)+S(rot)+S(trans))
     S(el)   - electronic entropy
     S(vib)  - vibrational entropy
     S(rot)  - rotational entropy
     S(trans)- translational entropy
The entropies will be listed as multiplied by the temperature to get
units of energy

Electronic entropy                ...      0.00000000 Eh      0.00 kcal/mol
Vibrational entropy               ...      0.00948839 Eh      5.95 kcal/mol
Rotational entropy                ...      0.01339124 Eh      8.40 kcal/mol
Translational entropy             ...      0.01903397 Eh     11.94 kcal/mol
-----------------------------------------------------------------------
Final entropy term                ...      0.04191360 Eh     26.30 kcal/mol

In case the symmetry of your molecule has not been determined correctly
or in case you have a reason to use a different symmetry number we print
out the resulting rotational entropy values for sn=1,12 :
 --------------------------------------------------------
|  sn= 1 | S(rot)=       0.01339124 Eh      8.40 kcal/mol|
|  sn= 2 | S(rot)=       0.01273678 Eh      7.99 kcal/mol|
|  sn= 3 | S(rot)=       0.01235395 Eh      7.75 kcal/mol|
|  sn= 4 | S(rot)=       0.01208233 Eh      7.58 kcal/mol|
|  sn= 5 | S(rot)=       0.01187164 Eh      7.45 kcal/mol|
|  sn= 6 | S(rot)=       0.01169950 Eh      7.34 kcal/mol|
|  sn= 7 | S(rot)=       0.01155395 Eh      7.25 kcal/mol|
|  sn= 8 | S(rot)=       0.01142787 Eh      7.17 kcal/mol|
|  sn= 9 | S(rot)=       0.01131666 Eh      7.10 kcal/mol|
|  sn=10 | S(rot)=       0.01121718 Eh      7.04 kcal/mol|
|  sn=11 | S(rot)=       0.01112719 Eh      6.98 kcal/mol|
|  sn=12 | S(rot)=       0.01104504 Eh      6.93 kcal/mol|
 --------------------------------------------------------

                             ****ORCA TERMINATED NORMALLY****
TOTAL RUN TIME: 0 days 0 hours 8 minutes 1 seconds 198 msec
