                         Program Version 5.0.4 -  RELEASE  -
|  1> # ORCA 5.0.4 - 10.inp # write input file
|  2> # Basic Mode
|  3> #
|  4> ! Freq wB97X Def2-SVP D4 SlowConv TightSCF DEFGRID2 Def2/J RIJCOSX
|  5>
|  6>
|  7>
|  8> %maxcore 4500
|  9>
| 10> %geom
| 11> Maxiter 150
| 12> END
| 13>
| 14> * xyzfile 0 1 10.xyz
| 15>
| 16>                          ****END OF INPUT****

CARTESIAN COORDINATES (ANGSTROEM)
---------------------------------
  C     -0.193162    1.051260    1.237464
  C      0.077463   -1.100366    0.000000
  C     -0.193163    1.051260   -1.237464
  C      0.355695    1.735233   -0.000000
  H     -1.266782    1.284192    1.368805
  H      0.324359    1.412433   -2.140797
  H      1.456429    1.669939   -0.000001
  N     -0.005065   -0.394546    1.141387
  N     -0.005065   -0.394546   -1.141387
  H     -1.266783    1.284191   -1.368804
  H      0.086611    2.801555   -0.000000
  H      0.324361    1.412433    2.140796
  C      0.003705   -1.091711    2.411059
  H      0.101295   -2.168274    2.225278
  H      0.843206   -0.756992    3.044936
  H     -0.932145   -0.909733    2.968241
  C      0.003705   -1.091711   -2.411059
  H      0.843208   -0.756994   -3.044935
  H      0.101293   -2.168274   -2.225278
  H     -0.932143   -0.909730   -2.968243

 Total Charge           Charge          ....    0
 Multiplicity           Mult            ....    1
 Number of Electrons    NEL             ....   62
 Basis Dimension        Dim             ....  172

ORBITAL ENERGIES
----------------

  NO   OCC          E(Eh)            E(eV)
   0   2.0000     -14.416230      -392.2856
   1   2.0000     -14.416223      -392.2854
   2   2.0000     -10.303517      -280.3729
   3   2.0000     -10.303514      -280.3729
   4   2.0000     -10.287164      -279.9280
   5   2.0000     -10.287141      -279.9273
   6   2.0000     -10.279572      -279.7214
   7   2.0000     -10.265729      -279.3447
   8   2.0000      -1.091755       -29.7082
   9   2.0000      -1.024961       -27.8906
  10   2.0000      -0.916804       -24.9475
  11   2.0000      -0.835884       -22.7456
  12   2.0000      -0.822979       -22.3944
  13   2.0000      -0.749110       -20.3843
  14   2.0000      -0.746882       -20.3237
  15   2.0000      -0.638469       -17.3736
  16   2.0000      -0.608586       -16.5605
  17   2.0000      -0.606117       -16.4933
  18   2.0000      -0.580711       -15.8019
  19   2.0000      -0.563945       -15.3457
  20   2.0000      -0.538452       -14.6520
  21   2.0000      -0.532665       -14.4946
  22   2.0000      -0.516174       -14.0458
  23   2.0000      -0.502167       -13.6647
  24   2.0000      -0.477371       -12.9899
  25   2.0000      -0.466517       -12.6946
  26   2.0000      -0.456686       -12.4271
  27   2.0000      -0.444093       -12.0844
  28   2.0000      -0.404406       -11.0044
  29   2.0000      -0.309541        -8.4230
  30   2.0000      -0.279223        -7.5981
  31   0.0000       0.127755         3.4764
  32   0.0000       0.143097         3.8939
  33   0.0000       0.162129         4.4118
  34   0.0000       0.182714         4.9719
  35   0.0000       0.192252         5.2315

MULLIKEN ATOMIC CHARGES
-----------------------
   0 C :    0.121551
   1 C :   -0.088362
   2 C :    0.121551
   3 C :   -0.057280
   4 H :    0.023907
   5 H :    0.022900
   6 H :    0.039777
   7 N :   -0.341751
   8 N :   -0.341751
   9 H :    0.023907
  10 H :    0.032883
  11 H :    0.022900
  12 C :    0.122727
  13 H :    0.050383
  14 H :    0.020340
  15 H :    0.016434
  16 C :    0.122727
  17 H :    0.020340
  18 H :    0.050383
  19 H :    0.016434
Sum of atomic charges:    0.0000000

LOEWDIN ATOMIC CHARGES
----------------------
   0 C :    0.030687
   1 C :   -0.209838
   2 C :    0.030687
   3 C :   -0.048377
   4 H :    0.016989
   5 H :    0.022355
   6 H :    0.031545
   7 N :   -0.059875
   8 N :   -0.059875
   9 H :    0.016989
  10 H :    0.032520
  11 H :    0.022355
  12 C :    0.026588
  13 H :    0.033091
  14 H :    0.013630
  15 H :    0.013610
  16 C :    0.026588
  17 H :    0.013630
  18 H :    0.033091
  19 H :    0.013610

  Mayer bond orders larger than 0.100000
B(  0-C ,  3-C ) :   1.0712 B(  0-C ,  4-H ) :   0.9538 B(  0-C ,  7-N ) :   0.9281
B(  0-C , 11-H ) :   0.9531 B(  1-C ,  7-N ) :   1.2689 B(  1-C ,  8-N ) :   1.2689
B(  2-C ,  3-C ) :   1.0712 B(  2-C ,  5-H ) :   0.9531 B(  2-C ,  8-N ) :   0.9281
B(  2-C ,  9-H ) :   0.9538 B(  3-C ,  6-H ) :   0.9492 B(  3-C , 10-H ) :   0.9502
B(  7-N , 12-C ) :   0.9806 B(  8-N , 16-C ) :   0.9807 B( 12-C , 13-H ) :   0.9708
B( 12-C , 14-H ) :   0.9751 B( 12-C , 15-H ) :   0.9731 B( 16-C , 17-H ) :   0.9751
B( 16-C , 18-H ) :   0.9708 B( 16-C , 19-H ) :   0.9731

Dispersion correction           -0.002578952
FINAL SINGLE POINT ENERGY      -344.982626619967

DIPOLE MOMENT
-------------
                                X             Y             Z
Electronic contribution:      0.17523      -1.12390       0.00000
Nuclear contribution   :     -0.31663       2.27440      -0.00000
                        -----------------------------------------
Total Dipole Moment    :     -0.14140       1.15050       0.00000
                        -----------------------------------------
Magnitude (a.u.)       :      1.15915
Magnitude (Debye)      :      2.94634

Dispersion correction in the Hessian             ... Starting D4

VIBRATIONAL FREQUENCIES
-----------------------

Scaling factor for frequencies =  1.000000000  (already applied!)

   0:         0.00 cm**-1
   1:         0.00 cm**-1
   2:         0.00 cm**-1
   3:         0.00 cm**-1
   4:         0.00 cm**-1
   5:         0.00 cm**-1
   6:        96.67 cm**-1
   7:       104.56 cm**-1
   8:       129.77 cm**-1
   9:       209.45 cm**-1
  10:       276.54 cm**-1
  11:       299.94 cm**-1
  12:       325.00 cm**-1
  13:       435.98 cm**-1
  14:       457.79 cm**-1
  15:       482.83 cm**-1
  16:       525.48 cm**-1
  17:       623.03 cm**-1
  18:       809.66 cm**-1
  19:       886.27 cm**-1
  20:       911.45 cm**-1
  21:       952.24 cm**-1
  22:      1043.14 cm**-1
  23:      1080.61 cm**-1
  24:      1082.66 cm**-1
  25:      1115.86 cm**-1
  26:      1123.76 cm**-1
  27:      1146.13 cm**-1
  28:      1161.36 cm**-1
  29:      1209.82 cm**-1
  30:      1245.08 cm**-1
  31:      1276.64 cm**-1
  32:      1277.60 cm**-1
  33:      1332.55 cm**-1
  34:      1353.06 cm**-1
  35:      1400.31 cm**-1
  36:      1402.06 cm**-1
  37:      1420.88 cm**-1
  38:      1431.65 cm**-1
  39:      1451.90 cm**-1
  40:      1466.39 cm**-1
  41:      1467.42 cm**-1
  42:      1470.66 cm**-1
  43:      1474.66 cm**-1
  44:      1476.53 cm**-1
  45:      1489.29 cm**-1
  46:      1512.11 cm**-1
  47:      1601.62 cm**-1
  48:      3037.49 cm**-1
  49:      3039.05 cm**-1
  50:      3040.82 cm**-1
  51:      3046.33 cm**-1
  52:      3087.30 cm**-1
  53:      3113.55 cm**-1
  54:      3114.70 cm**-1
  55:      3117.68 cm**-1
  56:      3120.61 cm**-1
  57:      3158.56 cm**-1
  58:      3206.79 cm**-1
  59:      3206.79 cm**-1

IR SPECTRUM
-----------

 Mode   freq       eps      Int      T**2         TX        TY        TZ
       cm**-1   L/(mol*cm) km/mol    a.u.
----------------------------------------------------------------------------
  6:     96.67   0.000008    0.04  0.000027  ( 0.000001  0.000000 -0.005150)
  7:    104.56   0.000464    2.35  0.001386  ( 0.036595  0.006808  0.000001)
  8:    129.77   0.000084    0.43  0.000203  (-0.000002 -0.000000  0.014246)
  9:    209.45   0.000977    4.94  0.001455  ( 0.038037  0.002869  0.000000)
 10:    276.54   0.001133    5.73  0.001279  (-0.035752  0.000648  0.000000)
 11:    299.94   0.000000    0.00  0.000000  (-0.000001  0.000000 -0.000417)
 12:    325.00   0.000448    2.26  0.000430  ( 0.015039  0.014286 -0.000000)
 13:    435.98   0.000193    0.98  0.000138  ( 0.000000  0.000000  0.011755)
 14:    457.79   0.000150    0.76  0.000102  (-0.006492 -0.007757 -0.000000)
 15:    482.83   0.003648   18.44  0.002358  (-0.000000  0.000000  0.048559)
 16:    525.48   0.000523    2.64  0.000310  ( 0.000633  0.017605 -0.000000)
 17:    623.03   0.000100    0.50  0.000050  (-0.001860 -0.006825 -0.000000)
 18:    809.66   0.000510    2.58  0.000197  (-0.000760  0.014003 -0.000000)
 19:    886.27   0.001592    8.05  0.000561  (-0.000000  0.000000 -0.023678)
 20:    911.45   0.000944    4.77  0.000323  ( 0.000000  0.000000 -0.017977)
 21:    952.24   0.000066    0.33  0.000022  ( 0.004617 -0.000485 -0.000000)
 22:   1043.14   0.002787   14.08  0.000834  ( 0.008032 -0.027734  0.000000)
 23:   1080.61   0.000260    1.32  0.000075  (-0.000000 -0.000000  0.008671)
 24:   1082.66   0.000069    0.35  0.000020  ( 0.000843  0.004394  0.000000)
 25:   1115.86   0.000825    4.17  0.000231  (-0.012609 -0.008462  0.000000)
 26:   1123.76   0.002156   10.89  0.000599  ( 0.000000  0.000000  0.024468)
 27:   1146.13   0.000026    0.13  0.000007  ( 0.000000  0.000000  0.002652)
 28:   1161.36   0.000975    4.93  0.000262  ( 0.015214  0.005519  0.000000)
 29:   1209.82   0.000782    3.95  0.000202  (-0.000000  0.000000  0.014206)
 30:   1245.08   0.010007   50.57  0.002508  ( 0.000000  0.000000 -0.050081)
 31:   1276.64   0.002886   14.58  0.000705  ( 0.008200  0.025262 -0.000001)
 32:   1277.60   0.001302    6.58  0.000318  ( 0.000001  0.000002  0.017834)
 33:   1332.55   0.000593    2.99  0.000139  ( 0.006486 -0.009833 -0.000000)
 34:   1353.06   0.007765   39.24  0.001791  ( 0.000000  0.000000  0.042320)
 35:   1400.31   0.006478   32.73  0.001444  (-0.000000  0.000004 -0.037994)
 36:   1402.06   0.002695   13.62  0.000600  (-0.002361  0.024380  0.000006)
 37:   1420.88   0.002794   14.12  0.000614  ( 0.000000 -0.000000 -0.024771)
 38:   1431.65   0.000935    4.72  0.000204  (-0.003374  0.013871 -0.000000)
 39:   1451.90   0.001069    5.40  0.000230  (-0.011900  0.009388 -0.000000)
 40:   1466.39   0.003008   15.20  0.000640  (-0.000001 -0.000005  0.025299)
 41:   1467.42   0.003102   15.68  0.000660  ( 0.003626  0.025429  0.000004)
 42:   1470.66   0.003751   18.95  0.000796  (-0.027137 -0.007708 -0.000003)
 43:   1474.66   0.007498   37.89  0.001587  (-0.000001 -0.000000  0.039834)
 44:   1476.53   0.000356    1.80  0.000075  (-0.000000  0.000000  0.008678)
 45:   1489.29   0.000345    1.74  0.000072  ( 0.007626 -0.003747 -0.000000)
 46:   1512.11   0.002027   10.24  0.000418  (-0.006177  0.019496  0.000000)
 47:   1601.62   0.054016  272.98  0.010525  (-0.000000 -0.000000  0.102589)
 48:   3037.49   0.019268   97.37  0.001980  ( 0.000001 -0.000001  0.044492)
 49:   3039.05   0.002815   14.23  0.000289  ( 0.008857 -0.014513 -0.000010)
 50:   3040.82   0.018376   92.87  0.001886  (-0.000003 -0.000000  0.043426)
 51:   3046.33   0.009959   50.33  0.001020  (-0.027332  0.016528 -0.000005)
 52:   3087.30   0.001809    9.14  0.000183  (-0.008243 -0.010720  0.000000)
 53:   3113.55   0.002357   11.91  0.000236  ( 0.000022  0.000004 -0.015370)
 54:   3114.70   0.019359   97.83  0.001940  (-0.043414 -0.007404 -0.000009)
 55:   3117.68   0.002978   15.05  0.000298  (-0.000005 -0.000003  0.017264)
 56:   3120.61   0.003091   15.62  0.000309  ( 0.012852  0.011998  0.000006)
 57:   3158.56   0.003979   20.11  0.000393  ( 0.013030 -0.014943  0.000000)
 58:   3206.79   0.000336    1.70  0.000033  ( 0.000135 -0.002731 -0.005021)
 59:   3206.79   0.000908    4.59  0.000088  ( 0.000460 -0.009269  0.001479)

--------------------------
THERMOCHEMISTRY AT 298.15K
--------------------------

Temperature         ... 298.15 K
Pressure            ... 1.00 atm
Total Mass          ... 112.18 AMU

Throughout the following assumptions are being made:
  (1) The electronic state is orbitally nondegenerate
  (2) There are no thermally accessible electronically excited states
  (3) Hindered rotations indicated by low frequency modes are not
      treated as such but are treated as vibrations and this may
      cause some error
  (4) All equations used are the standard statistical mechanics
      equations for an ideal gas
  (5) All vibrations are strictly harmonic

freq.      96.67  E(vib)   ...       0.47
freq.     104.56  E(vib)   ...       0.46
freq.     129.77  E(vib)   ...       0.43
freq.     209.45  E(vib)   ...       0.34
freq.     276.54  E(vib)   ...       0.28
freq.     299.94  E(vib)   ...       0.26
freq.     325.00  E(vib)   ...       0.24
freq.     435.98  E(vib)   ...       0.17
freq.     457.79  E(vib)   ...       0.16
freq.     482.83  E(vib)   ...       0.15
freq.     525.48  E(vib)   ...       0.13
freq.     623.03  E(vib)   ...       0.09
freq.     809.66  E(vib)   ...       0.05
freq.     886.27  E(vib)   ...       0.04
freq.     911.45  E(vib)   ...       0.03
freq.     952.24  E(vib)   ...       0.03
freq.    1043.14  E(vib)   ...       0.02
freq.    1080.61  E(vib)   ...       0.02
freq.    1082.66  E(vib)   ...       0.02
freq.    1115.86  E(vib)   ...       0.01
freq.    1123.76  E(vib)   ...       0.01
freq.    1146.13  E(vib)   ...       0.01
freq.    1161.36  E(vib)   ...       0.01
freq.    1209.82  E(vib)   ...       0.01
freq.    1245.08  E(vib)   ...       0.01
freq.    1276.64  E(vib)   ...       0.01
freq.    1277.60  E(vib)   ...       0.01
freq.    1332.55  E(vib)   ...       0.01
freq.    1353.06  E(vib)   ...       0.01
freq.    1400.31  E(vib)   ...       0.00
freq.    1402.06  E(vib)   ...       0.00
freq.    1420.88  E(vib)   ...       0.00
freq.    1431.65  E(vib)   ...       0.00
freq.    1451.90  E(vib)   ...       0.00
freq.    1466.39  E(vib)   ...       0.00
freq.    1467.42  E(vib)   ...       0.00
freq.    1470.66  E(vib)   ...       0.00
freq.    1474.66  E(vib)   ...       0.00
freq.    1476.53  E(vib)   ...       0.00
freq.    1489.29  E(vib)   ...       0.00
freq.    1512.11  E(vib)   ...       0.00
freq.    1601.62  E(vib)   ...       0.00
freq.    3037.49  E(vib)   ...       0.00
freq.    3039.05  E(vib)   ...       0.00
freq.    3040.82  E(vib)   ...       0.00
freq.    3046.33  E(vib)   ...       0.00
freq.    3087.30  E(vib)   ...       0.00
freq.    3113.55  E(vib)   ...       0.00
freq.    3114.70  E(vib)   ...       0.00
freq.    3117.68  E(vib)   ...       0.00
freq.    3120.61  E(vib)   ...       0.00
freq.    3158.56  E(vib)   ...       0.00
freq.    3206.79  E(vib)   ...       0.00
freq.    3206.79  E(vib)   ...       0.00

------------
INNER ENERGY
------------

The inner energy is: U= E(el) + E(ZPE) + E(vib) + E(rot) + E(trans)
    E(el)   - is the total energy from the electronic structure calculation
              = E(kin-el) + E(nuc-el) + E(el-el) + E(nuc-nuc)
    E(ZPE)  - the the zero temperature vibrational energy from the frequency calculation
    E(vib)  - the the finite temperature correction to E(ZPE) due to population
              of excited vibrational states
    E(rot)  - is the rotational thermal energy
    E(trans)- is the translational thermal energy

Summary of contributions to the inner energy U:
Electronic energy                ...   -344.98262662 Eh
Zero point energy                ...      0.18072718 Eh     113.41 kcal/mol
Thermal vibrational correction   ...      0.00562500 Eh       3.53 kcal/mol
Thermal rotational correction    ...      0.00141627 Eh       0.89 kcal/mol
Thermal translational correction ...      0.00141627 Eh       0.89 kcal/mol
-----------------------------------------------------------------------
Total thermal energy                   -344.79344190 Eh

Summary of corrections to the electronic energy:
(perhaps to be used in another calculation)
Total thermal correction                  0.00845754 Eh       5.31 kcal/mol
Non-thermal (ZPE) correction              0.18072718 Eh     113.41 kcal/mol
-----------------------------------------------------------------------
Total correction                          0.18918472 Eh     118.71 kcal/mol

--------
ENTHALPY
--------

The enthalpy is H = U + kB*T
                kB is Boltzmann's constant
Total free energy                 ...   -344.79344190 Eh
Thermal Enthalpy correction       ...      0.00094421 Eh       0.59 kcal/mol
-----------------------------------------------------------------------
Total Enthalpy                    ...   -344.79249769 Eh

Note: Rotational entropy computed according to Herzberg
Infrared and Raman Spectra, Chapter V,1, Van Nostrand Reinhold, 1945
Point Group:  Cs, Symmetry Number:   1
Rotational constants in cm-1:     0.111006     0.059433     0.040820

Vibrational entropy computed according to the QRRHO of S. Grimme
Chem.Eur.J. 2012 18 9955

-------
ENTROPY
-------

The entropy contributions are T*S = T*(S(el)+S(vib)+S(rot)+S(trans))
     S(el)   - electronic entropy
     S(vib)  - vibrational entropy
     S(rot)  - rotational entropy
     S(trans)- translational entropy
The entropies will be listed as multiplied by the temperature to get
units of energy

Electronic entropy                ...      0.00000000 Eh      0.00 kcal/mol
Vibrational entropy               ...      0.00959190 Eh      6.02 kcal/mol
Rotational entropy                ...      0.01339124 Eh      8.40 kcal/mol
Translational entropy             ...      0.01903397 Eh     11.94 kcal/mol
-----------------------------------------------------------------------
Final entropy term                ...      0.04201711 Eh     26.37 kcal/mol

In case the symmetry of your molecule has not been determined correctly
or in case you have a reason to use a different symmetry number we print
out the resulting rotational entropy values for sn=1,12 :
 --------------------------------------------------------
|  sn= 1 | S(rot)=       0.01339124 Eh      8.40 kcal/mol|
|  sn= 2 | S(rot)=       0.01273678 Eh      7.99 kcal/mol|
|  sn= 3 | S(rot)=       0.01235395 Eh      7.75 kcal/mol|
|  sn= 4 | S(rot)=       0.01208233 Eh      7.58 kcal/mol|
|  sn= 5 | S(rot)=       0.01187164 Eh      7.45 kcal/mol|
|  sn= 6 | S(rot)=       0.01169949 Eh      7.34 kcal/mol|
|  sn= 7 | S(rot)=       0.01155395 Eh      7.25 kcal/mol|
|  sn= 8 | S(rot)=       0.01142787 Eh      7.17 kcal/mol|
|  sn= 9 | S(rot)=       0.01131666 Eh      7.10 kcal/mol|
|  sn=10 | S(rot)=       0.01121718 Eh      7.04 kcal/mol|
|  sn=11 | S(rot)=       0.01112719 Eh      6.98 kcal/mol|
|  sn=12 | S(rot)=       0.01104504 Eh      6.93 kcal/mol|
 --------------------------------------------------------

                             ****ORCA TERMINATED NORMALLY****
TOTAL RUN TIME: 0 days 0 hours 13 minutes 51 seconds 670 msec
