                         Program Version 5.0.4 -  RELEASE  -
|  1> # ORCA 5.0.4 - 11+.inp # write input file
|  2> # Basic Mode
|  3> #
|  4> ! Freq wB97X Def2-SVP D4 SlowConv TightSCF DEFGRID2 Def2/J RIJCOSX
|  5>
|  6>
|  7>
|  8> %maxcore 4500
|  9>
| 10> %geom
| 11> Maxiter 150
| 12> END
| 13>
| 14> * xyzfile 1 1 11+.xyz
| 15>
| 16>                          ****END OF INPUT****

CARTESIAN COORDINATES (ANGSTROEM)
---------------------------------
  C      0.000000   -0.000000    0.663030
  N     -0.008672    1.193350    0.106160
  N      0.008672   -1.193350    0.106160
  C      0.226497    1.490792   -1.304696
  C     -0.226497   -1.490792   -1.304696
  H      0.722268    2.468843   -1.357227
  H     -0.722269   -2.468843   -1.357227
  H      0.895419    0.749044   -1.753175
  H     -0.895418   -0.749043   -1.753175
  H     -0.715601    1.543770   -1.870039
  H      0.715601   -1.543770   -1.870039
  C     -0.238701    2.362357    0.953325
  C      0.238701   -2.362357    0.953325
  H     -0.367192    2.054895    1.998059
  H      0.367192   -2.054895    1.998059
  H      0.616344    3.049633    0.875398
  H     -0.616344   -3.049633    0.875398
  H     -1.148638    2.883510    0.620895
  H      1.148638   -2.883511    0.620895
  H      0.000000    0.000000    1.758295

 Total Charge           Charge          ....    1
 Multiplicity           Mult            ....    1
 Number of Electrons    NEL             ....   56
 Basis Dimension        Dim             ....  163

ORBITAL ENERGIES
----------------

  NO   OCC          E(Eh)            E(eV)
   0   2.0000     -14.644209      -398.4892
   1   2.0000     -14.644208      -398.4892
   2   2.0000     -10.560833      -287.3749
   3   2.0000     -10.475367      -285.0492
   4   2.0000     -10.475353      -285.0489
   5   2.0000     -10.471477      -284.9434
   6   2.0000     -10.471462      -284.9430
   7   2.0000      -1.313116       -35.7317
   8   2.0000      -1.248179       -33.9647
   9   2.0000      -1.056156       -28.7395
  10   2.0000      -1.030159       -28.0320
  11   2.0000      -1.013589       -27.5812
  12   2.0000      -0.963851       -26.2277
  13   2.0000      -0.868703       -23.6386
  14   2.0000      -0.812985       -22.1225
  15   2.0000      -0.808789       -22.0083
  16   2.0000      -0.785486       -21.3742
  17   2.0000      -0.746126       -20.3031
  18   2.0000      -0.735046       -20.0016
  19   2.0000      -0.706741       -19.2314
  20   2.0000      -0.692648       -18.8479
  21   2.0000      -0.684061       -18.6142
  22   2.0000      -0.674004       -18.3406
  23   2.0000      -0.672424       -18.2976
  24   2.0000      -0.664530       -18.0828
  25   2.0000      -0.642583       -17.4856
  26   2.0000      -0.627635       -17.0788
  27   2.0000      -0.514761       -14.0074
  28   0.0000      -0.100542        -2.7359
  29   0.0000      -0.022744        -0.6189
  30   0.0000       0.006326         0.1722
  31   0.0000       0.016124         0.4388
  32   0.0000       0.033138         0.9017

MULLIKEN ATOMIC CHARGES
-----------------------
   0 C :    0.219180
   1 N :   -0.302203
   2 N :   -0.302202
   3 C :    0.047038
   4 C :    0.047037
   5 H :    0.090260
   6 H :    0.090260
   7 H :    0.080458
   8 H :    0.080458
   9 H :    0.102351
  10 H :    0.102350
  11 C :    0.052811
  12 C :    0.052811
  13 H :    0.080716
  14 H :    0.080716
  15 H :    0.096470
  16 H :    0.096470
  17 H :    0.097074
  18 H :    0.097074
  19 H :    0.090874
Sum of atomic charges:    1.0000000

LOEWDIN ATOMIC CHARGES
----------------------
   0 C :    0.160393
   1 N :    0.012364
   2 N :    0.012364
   3 C :    0.041820
   4 C :    0.041820
   5 H :    0.053161
   6 H :    0.053161
   7 H :    0.044192
   8 H :    0.044192
   9 H :    0.047100
  10 H :    0.047100
  11 C :    0.051453
  12 C :    0.051453
  13 H :    0.044782
  14 H :    0.044782
  15 H :    0.047782
  16 H :    0.047782
  17 H :    0.049865
  18 H :    0.049865
  19 H :    0.054568

  Mayer bond orders larger than 0.100000
B(  0-C ,  1-N ) :   1.4465 B(  0-C ,  2-N ) :   1.4465 B(  0-C , 19-H ) :   0.9593
B(  1-N ,  3-C ) :   0.9089 B(  1-N , 11-C ) :   0.9093 B(  2-N ,  4-C ) :   0.9089
B(  2-N , 12-C ) :   0.9093 B(  3-C ,  5-H ) :   0.9657 B(  3-C ,  7-H ) :   0.9698
B(  3-C ,  9-H ) :   0.9698 B(  4-C ,  6-H ) :   0.9657 B(  4-C ,  8-H ) :   0.9698
B(  4-C , 10-H ) :   0.9698 B( 11-C , 13-H ) :   0.9696 B( 11-C , 15-H ) :   0.9718
B( 11-C , 17-H ) :   0.9713 B( 12-C , 14-H ) :   0.9696 B( 12-C , 16-H ) :   0.9718
B( 12-C , 18-H ) :   0.9713

Dispersion correction           -0.002068105
FINAL SINGLE POINT ENERGY      -307.330294716370

DIPOLE MOMENT
-------------
                                X             Y             Z
Electronic contribution:     -0.00000       0.00000       1.41395
Nuclear contribution   :     -0.00000       0.00000      -1.29131
                        -----------------------------------------
Total Dipole Moment    :     -0.00000       0.00000       0.12263
                        -----------------------------------------
Magnitude (a.u.)       :      0.12263
Magnitude (Debye)      :      0.31171

Dispersion correction in the Hessian             ... Starting D4

VIBRATIONAL FREQUENCIES
-----------------------

Scaling factor for frequencies =  1.000000000  (already applied!)

   0:         0.00 cm**-1
   1:         0.00 cm**-1
   2:         0.00 cm**-1
   3:         0.00 cm**-1
   4:         0.00 cm**-1
   5:         0.00 cm**-1
   6:        48.78 cm**-1
   7:       127.91 cm**-1
   8:       147.82 cm**-1
   9:       187.79 cm**-1
  10:       195.63 cm**-1
  11:       232.10 cm**-1
  12:       277.78 cm**-1
  13:       317.73 cm**-1
  14:       356.17 cm**-1
  15:       412.25 cm**-1
  16:       449.51 cm**-1
  17:       501.06 cm**-1
  18:       626.77 cm**-1
  19:       895.71 cm**-1
  20:       915.07 cm**-1
  21:      1008.30 cm**-1
  22:      1088.57 cm**-1
  23:      1089.55 cm**-1
  24:      1110.36 cm**-1
  25:      1123.98 cm**-1
  26:      1128.78 cm**-1
  27:      1165.89 cm**-1
  28:      1167.50 cm**-1
  29:      1191.53 cm**-1
  30:      1245.84 cm**-1
  31:      1345.84 cm**-1
  32:      1436.23 cm**-1
  33:      1445.32 cm**-1
  34:      1446.63 cm**-1
  35:      1452.36 cm**-1
  36:      1456.00 cm**-1
  37:      1462.41 cm**-1
  38:      1466.66 cm**-1
  39:      1472.28 cm**-1
  40:      1477.11 cm**-1
  41:      1479.78 cm**-1
  42:      1491.20 cm**-1
  43:      1496.43 cm**-1
  44:      1505.26 cm**-1
  45:      1577.03 cm**-1
  46:      1817.37 cm**-1
  47:      3082.48 cm**-1
  48:      3082.74 cm**-1
  49:      3091.46 cm**-1
  50:      3096.04 cm**-1
  51:      3187.61 cm**-1
  52:      3187.77 cm**-1
  53:      3195.98 cm**-1
  54:      3198.50 cm**-1
  55:      3218.26 cm**-1
  56:      3220.48 cm**-1
  57:      3229.35 cm**-1
  58:      3238.57 cm**-1
  59:      3239.24 cm**-1

IR SPECTRUM
-----------

 Mode   freq       eps      Int      T**2         TX        TY        TZ
       cm**-1   L/(mol*cm) km/mol    a.u.
----------------------------------------------------------------------------
  6:     48.78   0.000004    0.02  0.000028  ( 0.000000  0.000000 -0.005308)
  7:    127.91   0.000383    1.94  0.000935  (-0.027019 -0.014306 -0.000000)
  8:    147.82   0.000005    0.02  0.000010  ( 0.000003  0.000001 -0.003200)
  9:    187.79   0.000001    0.00  0.000002  (-0.000001 -0.000001 -0.001256)
 10:    195.63   0.000218    1.10  0.000348  ( 0.015676  0.010112  0.000000)
 11:    232.10   0.000265    1.34  0.000356  (-0.018875 -0.000459  0.000000)
 12:    277.78   0.000001    0.01  0.000001  (-0.000000  0.000000 -0.001139)
 13:    317.73   0.000134    0.68  0.000132  ( 0.000000 -0.000000  0.011480)
 14:    356.17   0.000956    4.83  0.000838  ( 0.027556 -0.008863 -0.000000)
 15:    412.25   0.000003    0.02  0.000003  (-0.000000 -0.000000 -0.001582)
 16:    449.51   0.003134   15.84  0.002176  (-0.041507  0.021287  0.000000)
 17:    501.06   0.001835    9.27  0.001143  (-0.032830  0.008071 -0.000000)
 18:    626.77   0.000183    0.93  0.000091  (-0.000000  0.000000 -0.009556)
 19:    895.71   0.000946    4.78  0.000330  (-0.000000 -0.000000  0.018156)
 20:    915.07   0.003166   16.00  0.001080  (-0.000849  0.032848  0.000000)
 21:   1008.30   0.001748    8.83  0.000541  ( 0.009134 -0.021389  0.000000)
 22:   1088.57   0.002953   14.92  0.000847  ( 0.000001 -0.000002 -0.029095)
 23:   1089.55   0.000855    4.32  0.000245  (-0.005652  0.014597 -0.000004)
 24:   1110.36   0.000824    4.16  0.000232  (-0.000000  0.000000  0.015215)
 25:   1123.98   0.001156    5.84  0.000321  ( 0.009641 -0.015097  0.000000)
 26:   1128.78   0.000019    0.10  0.000005  (-0.000000 -0.000000  0.002294)
 27:   1165.89   0.002209   11.16  0.000591  ( 0.006614  0.023400 -0.000000)
 28:   1167.50   0.000050    0.25  0.000013  (-0.000001 -0.000002 -0.003649)
 29:   1191.53   0.011970   60.49  0.003135  ( 0.003435 -0.055885  0.000000)
 30:   1245.84   0.000838    4.24  0.000210  ( 0.006068 -0.013158 -0.000000)
 31:   1345.84   0.006619   33.45  0.001535  (-0.000000  0.000000 -0.039177)
 32:   1436.23   0.001883    9.52  0.000409  (-0.003624  0.019902  0.000000)
 33:   1445.32   0.000365    1.84  0.000079  (-0.000001 -0.000001  0.008878)
 34:   1446.63   0.001440    7.28  0.000311  ( 0.010568  0.014103  0.000000)
 35:   1452.36   0.000348    1.76  0.000075  (-0.003723 -0.007810 -0.000000)
 36:   1456.00   0.000515    2.60  0.000110  (-0.000000 -0.000000  0.010504)
 37:   1462.41   0.011319   57.20  0.002415  ( 0.003532 -0.049019 -0.000000)
 38:   1466.66   0.009569   48.36  0.002036  (-0.044265 -0.008754 -0.000000)
 39:   1472.28   0.000009    0.05  0.000002  ( 0.000000 -0.000001 -0.001381)
 40:   1477.11   0.002191   11.07  0.000463  (-0.000000  0.000000 -0.021513)
 41:   1479.78   0.000529    2.68  0.000112  (-0.000000 -0.000000  0.010566)
 42:   1491.20   0.004891   24.72  0.001024  (-0.031715 -0.004208  0.000000)
 43:   1496.43   0.001084    5.48  0.000226  (-0.000000  0.000000 -0.015032)
 44:   1505.26   0.007139   36.08  0.001480  (-0.011575  0.036687  0.000000)
 45:   1577.03   0.006428   32.48  0.001272  (-0.000000 -0.000000  0.035665)
 46:   1817.37   0.145065  733.10  0.024909  ( 0.001839 -0.157817 -0.000000)
 47:   3082.48   0.002654   13.41  0.000269  ( 0.001452 -0.016326  0.000025)
 48:   3082.74   0.000735    3.71  0.000074  ( 0.000004 -0.000047 -0.008626)
 49:   3091.46   0.000513    2.59  0.000052  ( 0.000220 -0.007189 -0.000002)
 50:   3096.04   0.001523    7.69  0.000153  ( 0.000000 -0.000001  0.012388)
 51:   3187.61   0.000004    0.02  0.000000  ( 0.000046  0.000020 -0.000605)
 52:   3187.77   0.000422    2.13  0.000041  ( 0.005925  0.002492  0.000005)
 53:   3195.98   0.000003    0.01  0.000000  ( 0.000001  0.000000 -0.000524)
 54:   3198.50   0.000120    0.61  0.000012  ( 0.003327  0.000812  0.000000)
 55:   3218.26   0.000274    1.39  0.000027  ( 0.000000  0.000000  0.005156)
 56:   3220.48   0.000199    1.01  0.000019  ( 0.001121  0.004245 -0.000000)
 57:   3229.35   0.000003    0.01  0.000000  (-0.000000  0.000000  0.000506)
 58:   3238.57   0.000060    0.30  0.000006  ( 0.000004 -0.000001  0.002405)
 59:   3239.24   0.000197    1.00  0.000019  ( 0.004224 -0.001086 -0.000002)

--------------------------
THERMOCHEMISTRY AT 298.15K
--------------------------

Temperature         ... 298.15 K
Pressure            ... 1.00 atm
Total Mass          ... 101.17 AMU

Throughout the following assumptions are being made:
  (1) The electronic state is orbitally nondegenerate
  (2) There are no thermally accessible electronically excited states
  (3) Hindered rotations indicated by low frequency modes are not
      treated as such but are treated as vibrations and this may
      cause some error
  (4) All equations used are the standard statistical mechanics
      equations for an ideal gas
  (5) All vibrations are strictly harmonic

freq.      48.78  E(vib)   ...       0.53
freq.     127.91  E(vib)   ...       0.43
freq.     147.82  E(vib)   ...       0.41
freq.     187.79  E(vib)   ...       0.36
freq.     195.63  E(vib)   ...       0.36
freq.     232.10  E(vib)   ...       0.32
freq.     277.78  E(vib)   ...       0.28
freq.     317.73  E(vib)   ...       0.25
freq.     356.17  E(vib)   ...       0.22
freq.     412.25  E(vib)   ...       0.19
freq.     449.51  E(vib)   ...       0.17
freq.     501.06  E(vib)   ...       0.14
freq.     626.77  E(vib)   ...       0.09
freq.     895.71  E(vib)   ...       0.03
freq.     915.07  E(vib)   ...       0.03
freq.    1008.30  E(vib)   ...       0.02
freq.    1088.57  E(vib)   ...       0.02
freq.    1089.55  E(vib)   ...       0.02
freq.    1110.36  E(vib)   ...       0.02
freq.    1123.98  E(vib)   ...       0.01
freq.    1128.78  E(vib)   ...       0.01
freq.    1165.89  E(vib)   ...       0.01
freq.    1167.50  E(vib)   ...       0.01
freq.    1191.53  E(vib)   ...       0.01
freq.    1245.84  E(vib)   ...       0.01
freq.    1345.84  E(vib)   ...       0.01
freq.    1436.23  E(vib)   ...       0.00
freq.    1445.32  E(vib)   ...       0.00
freq.    1446.63  E(vib)   ...       0.00
freq.    1452.36  E(vib)   ...       0.00
freq.    1456.00  E(vib)   ...       0.00
freq.    1462.41  E(vib)   ...       0.00
freq.    1466.66  E(vib)   ...       0.00
freq.    1472.28  E(vib)   ...       0.00
freq.    1477.11  E(vib)   ...       0.00
freq.    1479.78  E(vib)   ...       0.00
freq.    1491.20  E(vib)   ...       0.00
freq.    1496.43  E(vib)   ...       0.00
freq.    1505.26  E(vib)   ...       0.00
freq.    1577.03  E(vib)   ...       0.00
freq.    1817.37  E(vib)   ...       0.00
freq.    3082.48  E(vib)   ...       0.00
freq.    3082.74  E(vib)   ...       0.00
freq.    3091.46  E(vib)   ...       0.00
freq.    3096.04  E(vib)   ...       0.00
freq.    3187.61  E(vib)   ...       0.00
freq.    3187.77  E(vib)   ...       0.00
freq.    3195.98  E(vib)   ...       0.00
freq.    3198.50  E(vib)   ...       0.00
freq.    3218.26  E(vib)   ...       0.00
freq.    3220.48  E(vib)   ...       0.00
freq.    3229.35  E(vib)   ...       0.00
freq.    3238.57  E(vib)   ...       0.00
freq.    3239.24  E(vib)   ...       0.00

------------
INNER ENERGY
------------

The inner energy is: U= E(el) + E(ZPE) + E(vib) + E(rot) + E(trans)
    E(el)   - is the total energy from the electronic structure calculation
              = E(kin-el) + E(nuc-el) + E(el-el) + E(nuc-nuc)
    E(ZPE)  - the the zero temperature vibrational energy from the frequency calculation
    E(vib)  - the the finite temperature correction to E(ZPE) due to population
              of excited vibrational states
    E(rot)  - is the rotational thermal energy
    E(trans)- is the translational thermal energy

Summary of contributions to the inner energy U:
Electronic energy                ...   -307.33029472 Eh
Zero point energy                ...      0.18705752 Eh     117.38 kcal/mol
Thermal vibrational correction   ...      0.00637929 Eh       4.00 kcal/mol
Thermal rotational correction    ...      0.00141627 Eh       0.89 kcal/mol
Thermal translational correction ...      0.00141627 Eh       0.89 kcal/mol
-----------------------------------------------------------------------
Total thermal energy                   -307.13402537 Eh

Summary of corrections to the electronic energy:
(perhaps to be used in another calculation)
Total thermal correction                  0.00921183 Eh       5.78 kcal/mol
Non-thermal (ZPE) correction              0.18705752 Eh     117.38 kcal/mol
-----------------------------------------------------------------------
Total correction                          0.19626935 Eh     123.16 kcal/mol

--------
ENTHALPY
--------

The enthalpy is H = U + kB*T
                kB is Boltzmann's constant
Total free energy                 ...   -307.13402537 Eh
Thermal Enthalpy correction       ...      0.00094421 Eh       0.59 kcal/mol
-----------------------------------------------------------------------
Total Enthalpy                    ...   -307.13308116 Eh

Note: Rotational entropy computed according to Herzberg
Infrared and Raman Spectra, Chapter V,1, Van Nostrand Reinhold, 1945
Point Group:  C2, Symmetry Number:   2
Rotational constants in cm-1:     0.155292     0.056269     0.043388

Vibrational entropy computed according to the QRRHO of S. Grimme
Chem.Eur.J. 2012 18 9955

-------
ENTROPY
-------

The entropy contributions are T*S = T*(S(el)+S(vib)+S(rot)+S(trans))
     S(el)   - electronic entropy
     S(vib)  - vibrational entropy
     S(rot)  - rotational entropy
     S(trans)- translational entropy
The entropies will be listed as multiplied by the temperature to get
units of energy

Electronic entropy                ...      0.00000000 Eh      0.00 kcal/mol
Vibrational entropy               ...      0.01107805 Eh      6.95 kcal/mol
Rotational entropy                ...      0.01257531 Eh      7.89 kcal/mol
Translational entropy             ...      0.01888776 Eh     11.85 kcal/mol
-----------------------------------------------------------------------
Final entropy term                ...      0.04254113 Eh     26.69 kcal/mol

In case the symmetry of your molecule has not been determined correctly
or in case you have a reason to use a different symmetry number we print
out the resulting rotational entropy values for sn=1,12 :
 --------------------------------------------------------
|  sn= 1 | S(rot)=       0.01322977 Eh      8.30 kcal/mol|
|  sn= 2 | S(rot)=       0.01257531 Eh      7.89 kcal/mol|
|  sn= 3 | S(rot)=       0.01219248 Eh      7.65 kcal/mol|
|  sn= 4 | S(rot)=       0.01192086 Eh      7.48 kcal/mol|
|  sn= 5 | S(rot)=       0.01171017 Eh      7.35 kcal/mol|
|  sn= 6 | S(rot)=       0.01153803 Eh      7.24 kcal/mol|
|  sn= 7 | S(rot)=       0.01139248 Eh      7.15 kcal/mol|
|  sn= 8 | S(rot)=       0.01126640 Eh      7.07 kcal/mol|
|  sn= 9 | S(rot)=       0.01115519 Eh      7.00 kcal/mol|
|  sn=10 | S(rot)=       0.01105571 Eh      6.94 kcal/mol|
|  sn=11 | S(rot)=       0.01096572 Eh      6.88 kcal/mol|
|  sn=12 | S(rot)=       0.01088357 Eh      6.83 kcal/mol|
 --------------------------------------------------------

                             ****ORCA TERMINATED NORMALLY****
TOTAL RUN TIME: 0 days 0 hours 11 minutes 35 seconds 857 msec
