                         Program Version 5.0.4 -  RELEASE  -
|  1> ! SP wB97X D4 def2-SVP def2/J defgrid2
|  2> %maxcore 3000
|  3> %PAL NPROCS 4 END
|  4> * xyz 0 1
|  5> C -0.0 0.0 0.8248
|  6> N -0.0034 1.1627 0.1452
|  7> N 0.0034 -1.1627 0.1452
|  8> C 0.3551 1.421 -1.2486
|  9> C -0.3551 -1.421 -1.2486
| 10> H 0.9437 2.3507 -1.2878
| 11> H -0.9437 -2.3507 -1.2878
| 12> H 0.9847 0.6182 -1.6485
| 13> H -0.9847 -0.6182 -1.6485
| 14> H -0.5218 1.553 -1.9043
| 15> H 0.5218 -1.553 -1.9043
| 16> C -0.1748 2.384 0.9158
| 17> C 0.1748 -2.384 0.9158
| 18> H -0.3902 2.1228 1.9583
| 19> H 0.3902 -2.1228 1.9583
| 20> H 0.7343 3.0106 0.8778
| 21> H -0.7343 -3.0106 0.8778
| 22> H -1.0129 2.9826 0.5196
| 23> H 1.0129 -2.9826 0.5196
| 24> **                         ****END OF INPUT****

CARTESIAN COORDINATES (ANGSTROEM)
---------------------------------
  C     -0.000000    0.000000    0.824800
  N     -0.003400    1.162700    0.145200
  N      0.003400   -1.162700    0.145200
  C      0.355100    1.421000   -1.248600
  C     -0.355100   -1.421000   -1.248600
  H      0.943700    2.350700   -1.287800
  H     -0.943700   -2.350700   -1.287800
  H      0.984700    0.618200   -1.648500
  H     -0.984700   -0.618200   -1.648500
  H     -0.521800    1.553000   -1.904300
  H      0.521800   -1.553000   -1.904300
  C     -0.174800    2.384000    0.915800
  C      0.174800   -2.384000    0.915800
  H     -0.390200    2.122800    1.958300
  H      0.390200   -2.122800    1.958300
  H      0.734300    3.010600    0.877800
  H     -0.734300   -3.010600    0.877800
  H     -1.012900    2.982600    0.519600
  H      1.012900   -2.982600    0.519600

 Total Charge           Charge          ....    0
 Multiplicity           Mult            ....    1
 Number of Electrons    NEL             ....   56
 Basis Dimension        Dim             ....  158

ORBITAL ENERGIES
----------------

  NO   OCC          E(Eh)            E(eV)
   0   2.0000     -14.419287      -392.3688
   1   2.0000     -14.419279      -392.3685
   2   2.0000     -10.301007      -280.3047
   3   2.0000     -10.300985      -280.3041
   4   2.0000     -10.285651      -279.8868
   5   2.0000     -10.285621      -279.8860
   6   2.0000     -10.267436      -279.3911
   7   2.0000      -1.079929       -29.3864
   8   2.0000      -1.026447       -27.9310
   9   2.0000      -0.844418       -22.9778
  10   2.0000      -0.831425       -22.6242
  11   2.0000      -0.823484       -22.4081
  12   2.0000      -0.750050       -20.4099
  13   2.0000      -0.656142       -17.8545
  14   2.0000      -0.607493       -16.5307
  15   2.0000      -0.585381       -15.9290
  16   2.0000      -0.582058       -15.8386
  17   2.0000      -0.562494       -15.3062
  18   2.0000      -0.539353       -14.6766
  19   2.0000      -0.525813       -14.3081
  20   2.0000      -0.507025       -13.7969
  21   2.0000      -0.495944       -13.4953
  22   2.0000      -0.478455       -13.0194
  23   2.0000      -0.475486       -12.9386
  24   2.0000      -0.459422       -12.5015
  25   2.0000      -0.405930       -11.0459
  26   2.0000      -0.321863        -8.7583
  27   2.0000      -0.267431        -7.2772
  28   0.0000       0.134526         3.6606
  29   0.0000       0.138769         3.7761
  30   0.0000       0.163545         4.4503
  31   0.0000       0.186905         5.0860
  32   0.0000       0.191850         5.2205

MULLIKEN ATOMIC CHARGES
-----------------------
   0 C :   -0.100316
   1 N :   -0.338874
   2 N :   -0.338874
   3 C :    0.079737
   4 C :    0.079736
   5 H :    0.028565
   6 H :    0.028565
   7 H :    0.037436
   8 H :    0.037436
   9 H :    0.037591
  10 H :    0.037591
  11 C :    0.116964
  12 C :    0.116964
  13 H :    0.049959
  14 H :    0.049959
  15 H :    0.018982
  16 H :    0.018981
  17 H :    0.019799
  18 H :    0.019799
Sum of atomic charges:   -0.0000000

LOEWDIN ATOMIC CHARGES
----------------------
   0 C :   -0.204427
   1 N :   -0.063579
   2 N :   -0.063579
   3 C :    0.013922
   4 C :    0.013922
   5 H :    0.023457
   6 H :    0.023457
   7 H :    0.026605
   8 H :    0.026605
   9 H :    0.017135
  10 H :    0.017135
  11 C :    0.027159
  12 C :    0.027159
  13 H :    0.031440
  14 H :    0.031440
  15 H :    0.012261
  16 H :    0.012261
  17 H :    0.013814
  18 H :    0.013814

  Mayer bond orders larger than 0.100000
B(  0-C ,  1-N ) :   1.2795 B(  0-C ,  2-N ) :   1.2795 B(  1-N ,  3-C ) :   0.9409
B(  1-N , 11-C ) :   0.9797 B(  2-N ,  4-C ) :   0.9409 B(  2-N , 12-C ) :   0.9797
B(  3-C ,  5-H ) :   0.9705 B(  3-C ,  7-H ) :   0.9737 B(  3-C ,  9-H ) :   0.9733
B(  4-C ,  6-H ) :   0.9705 B(  4-C ,  8-H ) :   0.9737 B(  4-C , 10-H ) :   0.9733
B( 11-C , 13-H ) :   0.9710 B( 11-C , 15-H ) :   0.9725 B( 11-C , 17-H ) :   0.9769
B( 12-C , 14-H ) :   0.9710 B( 12-C , 16-H ) :   0.9725 B( 12-C , 18-H ) :   0.9769

Dispersion correction           -0.002175908
FINAL SINGLE POINT ENERGY      -306.882189170726

DIPOLE MOMENT
-------------
                                X             Y             Z
Electronic contribution:     -0.00000      -0.00000       2.04217
Nuclear contribution   :      0.00000       0.00000      -3.12056
                        -----------------------------------------
Total Dipole Moment    :     -0.00000      -0.00000      -1.07839
                        -----------------------------------------
Magnitude (a.u.)       :      1.07839
Magnitude (Debye)      :      2.74106

Rotational constants in cm-1:     0.162517     0.056857     0.044688
Rotational constants in MHz :  4872.137758  1704.517247  1339.715659

                             ****ORCA TERMINATED NORMALLY****
TOTAL RUN TIME: 0 days 0 hours 0 minutes 34 seconds 143 msec
