                         Program Version 5.0.4 -  RELEASE  -
|  1> # ORCA 5.0.4 - 11.inp # write input file
|  2> # Basic Mode
|  3> #
|  4> ! Freq wB97X Def2-SVP D4 SlowConv TightSCF DEFGRID2 Def2/J RIJCOSX
|  5>
|  6>
|  7>
|  8> %maxcore 4500
|  9>
| 10> %geom
| 11> Maxiter 150
| 12> END
| 13>
| 14> * xyzfile 0 1 11.xyz
| 15>
| 16>                          ****END OF INPUT****

CARTESIAN COORDINATES (ANGSTROEM)
---------------------------------
  C     -0.000000    0.000000    0.824767
  N     -0.003410    1.162705    0.145195
  N      0.003409   -1.162705    0.145196
  C      0.355127    1.420995   -1.248636
  C     -0.355127   -1.420995   -1.248636
  H      0.943695    2.350699   -1.287755
  H     -0.943696   -2.350699   -1.287754
  H      0.984655    0.618193   -1.648508
  H     -0.984655   -0.618193   -1.648507
  H     -0.521790    1.553004   -1.904321
  H      0.521790   -1.553004   -1.904320
  C     -0.174803    2.384021    0.915778
  C      0.174803   -2.384021    0.915778
  H     -0.390164    2.122781    1.958252
  H      0.390164   -2.122782    1.958253
  H      0.734291    3.010631    0.877753
  H     -0.734290   -3.010631    0.877752
  H     -1.012889    2.982645    0.519645
  H      1.012889   -2.982644    0.519645

 Total Charge           Charge          ....    0
 Multiplicity           Mult            ....    1
 Number of Electrons    NEL             ....   56
 Basis Dimension        Dim             ....  158

ORBITAL ENERGIES
----------------

  NO   OCC          E(Eh)            E(eV)
   0   2.0000     -14.419313      -392.3695
   1   2.0000     -14.419305      -392.3692
   2   2.0000     -10.301038      -280.3055
   3   2.0000     -10.301017      -280.3049
   4   2.0000     -10.285691      -279.8879
   5   2.0000     -10.285662      -279.8871
   6   2.0000     -10.267455      -279.3916
   7   2.0000      -1.079943       -29.3867
   8   2.0000      -1.026461       -27.9314
   9   2.0000      -0.844434       -22.9782
  10   2.0000      -0.831446       -22.6248
  11   2.0000      -0.823502       -22.4086
  12   2.0000      -0.750070       -20.4104
  13   2.0000      -0.656155       -17.8549
  14   2.0000      -0.607507       -16.5311
  15   2.0000      -0.585390       -15.9293
  16   2.0000      -0.582071       -15.8390
  17   2.0000      -0.562505       -15.3066
  18   2.0000      -0.539369       -14.6770
  19   2.0000      -0.525839       -14.3088
  20   2.0000      -0.507038       -13.7972
  21   2.0000      -0.495955       -13.4956
  22   2.0000      -0.478480       -13.0201
  23   2.0000      -0.475503       -12.9391
  24   2.0000      -0.459449       -12.5022
  25   2.0000      -0.405946       -11.0463
  26   2.0000      -0.321879        -8.7588
  27   2.0000      -0.267439        -7.2774
  28   0.0000       0.134521         3.6605
  29   0.0000       0.138767         3.7760
  30   0.0000       0.163541         4.4502
  31   0.0000       0.186900         5.0858
  32   0.0000       0.191851         5.2205

MULLIKEN ATOMIC CHARGES
-----------------------
   0 C :   -0.100315
   1 N :   -0.338888
   2 N :   -0.338887
   3 C :    0.079807
   4 C :    0.079807
   5 H :    0.028546
   6 H :    0.028546
   7 H :    0.037412
   8 H :    0.037412
   9 H :    0.037574
  10 H :    0.037574
  11 C :    0.117039
  12 C :    0.117039
  13 H :    0.049931
  14 H :    0.049932
  15 H :    0.018958
  16 H :    0.018958
  17 H :    0.019777
  18 H :    0.019777
Sum of atomic charges:   -0.0000000

LOEWDIN ATOMIC CHARGES
----------------------
   0 C :   -0.204429
   1 N :   -0.063580
   2 N :   -0.063580
   3 C :    0.013964
   4 C :    0.013964
   5 H :    0.023446
   6 H :    0.023446
   7 H :    0.026587
   8 H :    0.026587
   9 H :    0.017128
  10 H :    0.017128
  11 C :    0.027197
  12 C :    0.027197
  13 H :    0.031425
  14 H :    0.031425
  15 H :    0.012249
  16 H :    0.012249
  17 H :    0.013800
  18 H :    0.013800

  Mayer bond orders larger than 0.100000
B(  0-C ,  1-N ) :   1.2795 B(  0-C ,  2-N ) :   1.2795 B(  1-N ,  3-C ) :   0.9409
B(  1-N , 11-C ) :   0.9797 B(  2-N ,  4-C ) :   0.9409 B(  2-N , 12-C ) :   0.9797
B(  3-C ,  5-H ) :   0.9705 B(  3-C ,  7-H ) :   0.9737 B(  3-C ,  9-H ) :   0.9733
B(  4-C ,  6-H ) :   0.9705 B(  4-C ,  8-H ) :   0.9737 B(  4-C , 10-H ) :   0.9733
B( 11-C , 13-H ) :   0.9710 B( 11-C , 15-H ) :   0.9725 B( 11-C , 17-H ) :   0.9769
B( 12-C , 14-H ) :   0.9710 B( 12-C , 16-H ) :   0.9725 B( 12-C , 18-H ) :   0.9769

Dispersion correction           -0.002175900
FINAL SINGLE POINT ENERGY      -306.882188430670

DIPOLE MOMENT
-------------
                                X             Y             Z
Electronic contribution:     -0.00000      -0.00000       2.04202
Nuclear contribution   :      0.00000      -0.00000      -3.12040
                        -----------------------------------------
Total Dipole Moment    :      0.00000      -0.00000      -1.07839
                        -----------------------------------------
Magnitude (a.u.)       :      1.07839
Magnitude (Debye)      :      2.74104

Dispersion correction in the Hessian             ... Starting D4

VIBRATIONAL FREQUENCIES
-----------------------

Scaling factor for frequencies =  1.000000000  (already applied!)

   0:         0.00 cm**-1
   1:         0.00 cm**-1
   2:         0.00 cm**-1
   3:         0.00 cm**-1
   4:         0.00 cm**-1
   5:         0.00 cm**-1
   6:        65.63 cm**-1
   7:       146.61 cm**-1
   8:       168.57 cm**-1
   9:       177.51 cm**-1
  10:       193.01 cm**-1
  11:       243.14 cm**-1
  12:       285.90 cm**-1
  13:       326.06 cm**-1
  14:       357.58 cm**-1
  15:       431.34 cm**-1
  16:       439.81 cm**-1
  17:       498.21 cm**-1
  18:       623.05 cm**-1
  19:       891.94 cm**-1
  20:       914.87 cm**-1
  21:      1062.49 cm**-1
  22:      1067.57 cm**-1
  23:      1090.54 cm**-1
  24:      1107.95 cm**-1
  25:      1110.81 cm**-1
  26:      1159.16 cm**-1
  27:      1161.57 cm**-1
  28:      1168.86 cm**-1
  29:      1264.38 cm**-1
  30:      1326.05 cm**-1
  31:      1411.48 cm**-1
  32:      1414.15 cm**-1
  33:      1417.35 cm**-1
  34:      1421.42 cm**-1
  35:      1448.94 cm**-1
  36:      1456.88 cm**-1
  37:      1474.52 cm**-1
  38:      1475.16 cm**-1
  39:      1475.74 cm**-1
  40:      1476.11 cm**-1
  41:      1490.54 cm**-1
  42:      1492.15 cm**-1
  43:      1513.63 cm**-1
  44:      1595.19 cm**-1
  45:      3037.16 cm**-1
  46:      3038.93 cm**-1
  47:      3054.95 cm**-1
  48:      3060.29 cm**-1
  49:      3115.66 cm**-1
  50:      3115.95 cm**-1
  51:      3139.13 cm**-1
  52:      3142.19 cm**-1
  53:      3210.15 cm**-1
  54:      3212.29 cm**-1
  55:      3214.36 cm**-1
  56:      3214.43 cm**-1

IR SPECTRUM
-----------

 Mode   freq       eps      Int      T**2         TX        TY        TZ
       cm**-1   L/(mol*cm) km/mol    a.u.
----------------------------------------------------------------------------
  6:     65.63   0.000011    0.06  0.000054  ( 0.000000 -0.000000  0.007331)
  7:    146.61   0.000774    3.91  0.001647  ( 0.040010  0.006811 -0.000000)
  8:    168.57   0.000000    0.00  0.000000  (-0.000006 -0.000001 -0.000297)
  9:    177.51   0.000033    0.17  0.000058  (-0.000002 -0.000000 -0.007605)
 10:    193.01   0.000381    1.92  0.000616  ( 0.018706  0.016303 -0.000000)
 11:    243.14   0.001569    7.93  0.002013  ( 0.043335 -0.011638 -0.000000)
 12:    285.90   0.000357    1.80  0.000389  ( 0.000000  0.000000  0.019733)
 13:    326.06   0.000028    0.14  0.000027  ( 0.000000  0.000000  0.005187)
 14:    357.58   0.002165   10.94  0.001889  (-0.022590  0.037132 -0.000000)
 15:    431.34   0.000029    0.15  0.000021  ( 0.000000  0.000000  0.004579)
 16:    439.81   0.001754    8.87  0.001245  (-0.012570 -0.032966  0.000000)
 17:    498.21   0.000567    2.86  0.000355  ( 0.004793 -0.018221 -0.000000)
 18:    623.05   0.000462    2.34  0.000231  ( 0.000000  0.000000  0.015215)
 19:    891.94   0.001684    8.51  0.000589  (-0.000000 -0.000001 -0.024270)
 20:    914.87   0.006352   32.10  0.002167  (-0.002198 -0.046496  0.000000)
 21:   1062.49   0.000480    2.43  0.000141  (-0.000000 -0.000001  0.011874)
 22:   1067.57   0.001076    5.44  0.000314  (-0.001843  0.017638  0.000000)
 23:   1090.54   0.000832    4.20  0.000238  (-0.000000  0.000000  0.015430)
 24:   1107.95   0.000298    1.51  0.000084  ( 0.008945 -0.002010  0.000001)
 25:   1110.81   0.000382    1.93  0.000107  (-0.000001  0.000000  0.010362)
 26:   1159.16   0.004571   23.10  0.001230  ( 0.012337  0.032837  0.000001)
 27:   1161.57   0.000178    0.90  0.000048  (-0.000001 -0.000005  0.006916)
 28:   1168.86   0.012556   63.45  0.003352  (-0.007142  0.057456  0.000000)
 29:   1264.38   0.000233    1.18  0.000057  ( 0.001980 -0.007315 -0.000000)
 30:   1326.05   0.003689   18.64  0.000868  ( 0.000000  0.000000  0.029466)
 31:   1411.48   0.000056    0.28  0.000012  ( 0.000001  0.000002  0.003505)
 32:   1414.15   0.000246    1.24  0.000054  ( 0.007334 -0.000655 -0.000000)
 33:   1417.35   0.020548  103.84  0.004524  ( 0.000834  0.067257 -0.000000)
 34:   1421.42   0.000027    0.14  0.000006  ( 0.000000 -0.000003 -0.002452)
 35:   1448.94   0.000450    2.28  0.000097  (-0.000000  0.000001 -0.009849)
 36:   1456.88   0.000237    1.20  0.000051  ( 0.006655 -0.002549 -0.000000)
 37:   1474.52   0.000113    0.57  0.000024  (-0.000002 -0.000000  0.004887)
 38:   1475.16   0.008437   42.64  0.001785  ( 0.015146  0.039440 -0.000007)
 39:   1475.74   0.001968    9.95  0.000416  (-0.000012 -0.000008 -0.020400)
 40:   1476.11   0.006846   34.60  0.001447  ( 0.030225 -0.023102 -0.000004)
 41:   1490.54   0.002064   10.43  0.000432  (-0.018562 -0.009354 -0.000002)
 42:   1492.15   0.001097    5.54  0.000229  ( 0.000002  0.000000 -0.015145)
 43:   1513.63   0.001153    5.83  0.000238  ( 0.000000 -0.000000  0.015418)
 44:   1595.19   0.066563  336.38  0.013022  (-0.008205 -0.113817  0.000000)
 45:   3037.16   0.028778  145.43  0.002957  ( 0.003329  0.054275  0.000019)
 46:   3038.93   0.001991   10.06  0.000204  (-0.000004 -0.000073  0.014297)
 47:   3054.95   0.006983   35.29  0.000713  (-0.001473  0.026668 -0.000007)
 48:   3060.29   0.011483   58.03  0.001171  (-0.000000 -0.000007 -0.034219)
 49:   3115.66   0.000515    2.60  0.000052  ( 0.000397 -0.000006  0.007172)
 50:   3115.95   0.016502   83.39  0.001653  ( 0.040648 -0.000609 -0.000070)
 51:   3139.13   0.000376    1.90  0.000037  ( 0.000002  0.000001 -0.006110)
 52:   3142.19   0.007903   39.94  0.000785  (-0.022995 -0.016003  0.000000)
 53:   3210.15   0.003989   20.16  0.000388  ( 0.012611 -0.015124 -0.000003)
 54:   3212.29   0.000153    0.77  0.000015  (-0.000009  0.000011 -0.003857)
 55:   3214.36   0.000467    2.36  0.000045  (-0.002578 -0.006213 -0.000356)
 56:   3214.43   0.000830    4.19  0.000081  (-0.000102 -0.000246  0.008971)

--------------------------
THERMOCHEMISTRY AT 298.15K
--------------------------

Temperature         ... 298.15 K
Pressure            ... 1.00 atm
Total Mass          ... 100.16 AMU

Throughout the following assumptions are being made:
  (1) The electronic state is orbitally nondegenerate
  (2) There are no thermally accessible electronically excited states
  (3) Hindered rotations indicated by low frequency modes are not
      treated as such but are treated as vibrations and this may
      cause some error
  (4) All equations used are the standard statistical mechanics
      equations for an ideal gas
  (5) All vibrations are strictly harmonic

freq.      65.63  E(vib)   ...       0.50
freq.     146.61  E(vib)   ...       0.41
freq.     168.57  E(vib)   ...       0.38
freq.     177.51  E(vib)   ...       0.37
freq.     193.01  E(vib)   ...       0.36
freq.     243.14  E(vib)   ...       0.31
freq.     285.90  E(vib)   ...       0.27
freq.     326.06  E(vib)   ...       0.24
freq.     357.58  E(vib)   ...       0.22
freq.     431.34  E(vib)   ...       0.18
freq.     439.81  E(vib)   ...       0.17
freq.     498.21  E(vib)   ...       0.14
freq.     623.05  E(vib)   ...       0.09
freq.     891.94  E(vib)   ...       0.03
freq.     914.87  E(vib)   ...       0.03
freq.    1062.49  E(vib)   ...       0.02
freq.    1067.57  E(vib)   ...       0.02
freq.    1090.54  E(vib)   ...       0.02
freq.    1107.95  E(vib)   ...       0.02
freq.    1110.81  E(vib)   ...       0.01
freq.    1159.16  E(vib)   ...       0.01
freq.    1161.57  E(vib)   ...       0.01
freq.    1168.86  E(vib)   ...       0.01
freq.    1264.38  E(vib)   ...       0.01
freq.    1326.05  E(vib)   ...       0.01
freq.    1411.48  E(vib)   ...       0.00
freq.    1414.15  E(vib)   ...       0.00
freq.    1417.35  E(vib)   ...       0.00
freq.    1421.42  E(vib)   ...       0.00
freq.    1448.94  E(vib)   ...       0.00
freq.    1456.88  E(vib)   ...       0.00
freq.    1474.52  E(vib)   ...       0.00
freq.    1475.16  E(vib)   ...       0.00
freq.    1475.74  E(vib)   ...       0.00
freq.    1476.11  E(vib)   ...       0.00
freq.    1490.54  E(vib)   ...       0.00
freq.    1492.15  E(vib)   ...       0.00
freq.    1513.63  E(vib)   ...       0.00
freq.    1595.19  E(vib)   ...       0.00
freq.    3037.16  E(vib)   ...       0.00
freq.    3038.93  E(vib)   ...       0.00
freq.    3054.95  E(vib)   ...       0.00
freq.    3060.29  E(vib)   ...       0.00
freq.    3115.66  E(vib)   ...       0.00
freq.    3115.95  E(vib)   ...       0.00
freq.    3139.13  E(vib)   ...       0.00
freq.    3142.19  E(vib)   ...       0.00
freq.    3210.15  E(vib)   ...       0.00
freq.    3212.29  E(vib)   ...       0.00
freq.    3214.36  E(vib)   ...       0.00
freq.    3214.43  E(vib)   ...       0.00

------------
INNER ENERGY
------------

The inner energy is: U= E(el) + E(ZPE) + E(vib) + E(rot) + E(trans)
    E(el)   - is the total energy from the electronic structure calculation
              = E(kin-el) + E(nuc-el) + E(el-el) + E(nuc-nuc)
    E(ZPE)  - the the zero temperature vibrational energy from the frequency calculation
    E(vib)  - the the finite temperature correction to E(ZPE) due to population
              of excited vibrational states
    E(rot)  - is the rotational thermal energy
    E(trans)- is the translational thermal energy

Summary of contributions to the inner energy U:
Electronic energy                ...   -306.88218843 Eh
Zero point energy                ...      0.17177697 Eh     107.79 kcal/mol
Thermal vibrational correction   ...      0.00623285 Eh       3.91 kcal/mol
Thermal rotational correction    ...      0.00141627 Eh       0.89 kcal/mol
Thermal translational correction ...      0.00141627 Eh       0.89 kcal/mol
-----------------------------------------------------------------------
Total thermal energy                   -306.70134607 Eh

Summary of corrections to the electronic energy:
(perhaps to be used in another calculation)
Total thermal correction                  0.00906539 Eh       5.69 kcal/mol
Non-thermal (ZPE) correction              0.17177697 Eh     107.79 kcal/mol
-----------------------------------------------------------------------
Total correction                          0.18084236 Eh     113.48 kcal/mol

--------
ENTHALPY
--------

The enthalpy is H = U + kB*T
                kB is Boltzmann's constant
Total free energy                 ...   -306.70134607 Eh
Thermal Enthalpy correction       ...      0.00094421 Eh       0.59 kcal/mol
-----------------------------------------------------------------------
Total Enthalpy                    ...   -306.70040186 Eh

Note: Rotational entropy computed according to Herzberg
Infrared and Raman Spectra, Chapter V,1, Van Nostrand Reinhold, 1945
Point Group:  C2, Symmetry Number:   2
Rotational constants in cm-1:     0.162517     0.056856     0.044688

Vibrational entropy computed according to the QRRHO of S. Grimme
Chem.Eur.J. 2012 18 9955

-------
ENTROPY
-------

The entropy contributions are T*S = T*(S(el)+S(vib)+S(rot)+S(trans))
     S(el)   - electronic entropy
     S(vib)  - vibrational entropy
     S(rot)  - rotational entropy
     S(trans)- translational entropy
The entropies will be listed as multiplied by the temperature to get
units of energy

Electronic entropy                ...      0.00000000 Eh      0.00 kcal/mol
Vibrational entropy               ...      0.01071607 Eh      6.72 kcal/mol
Rotational entropy                ...      0.01253501 Eh      7.87 kcal/mol
Translational entropy             ...      0.01887358 Eh     11.84 kcal/mol
-----------------------------------------------------------------------
Final entropy term                ...      0.04212466 Eh     26.43 kcal/mol

In case the symmetry of your molecule has not been determined correctly
or in case you have a reason to use a different symmetry number we print
out the resulting rotational entropy values for sn=1,12 :
 --------------------------------------------------------
|  sn= 1 | S(rot)=       0.01318946 Eh      8.28 kcal/mol|
|  sn= 2 | S(rot)=       0.01253501 Eh      7.87 kcal/mol|
|  sn= 3 | S(rot)=       0.01215218 Eh      7.63 kcal/mol|
|  sn= 4 | S(rot)=       0.01188055 Eh      7.46 kcal/mol|
|  sn= 5 | S(rot)=       0.01166986 Eh      7.32 kcal/mol|
|  sn= 6 | S(rot)=       0.01149772 Eh      7.21 kcal/mol|
|  sn= 7 | S(rot)=       0.01135217 Eh      7.12 kcal/mol|
|  sn= 8 | S(rot)=       0.01122610 Eh      7.04 kcal/mol|
|  sn= 9 | S(rot)=       0.01111489 Eh      6.97 kcal/mol|
|  sn=10 | S(rot)=       0.01101541 Eh      6.91 kcal/mol|
|  sn=11 | S(rot)=       0.01092542 Eh      6.86 kcal/mol|
|  sn=12 | S(rot)=       0.01084326 Eh      6.80 kcal/mol|
 --------------------------------------------------------

-------------------
GIBBS FREE ENERGY

                             ****ORCA TERMINATED NORMALLY****
TOTAL RUN TIME: 0 days 0 hours 10 minutes 46 seconds 864 msec
