                         Program Version 5.0.4 -  RELEASE  -
|  1> # ORCA 5.0.4 - 1.inp # write input file
|  2> # Basic Mode
|  3> #
|  4> ! Freq wB97X Def2-SVP D4 SlowConv TightSCF DEFGRID2 Def2/J RIJCOSX
|  5>
|  6>
|  7>
|  8> %maxcore 4500
|  9>
| 10> %geom
| 11> Maxiter 150
| 12> END
| 13>
| 14> * xyzfile 0 1 1.xyz
| 15>
| 16>                          ****END OF INPUT****

CARTESIAN COORDINATES (ANGSTROEM)
---------------------------------
  C     -0.000000    0.677842   -1.193646
  C     -0.000001   -0.677842   -1.193646
  N     -0.000000    1.061586    0.137045
  N     -0.000000   -1.061586    0.137045
  C     -0.000000    0.000000    0.987229
  H      0.000000    1.393293   -2.014719
  H     -0.000001   -1.393293   -2.014719
  C      0.000000    2.446994    0.565798
  C      0.000000   -2.446994    0.565798
  H     -0.894579    2.968333    0.194027
  H     -0.894579   -2.968332    0.194028
  H      0.894580   -2.968332    0.194028
  H      0.894580    2.968332    0.194029
  H     -0.000001    2.468747    1.662105
  H      0.000000   -2.468748    1.662105

 Total Charge           Charge          ....    0
 Multiplicity           Mult            ....    1
 Number of Electrons    NEL             ....   52
 Basis Dimension        Dim             ....  138

ORBITAL ENERGIES
----------------

  NO   OCC          E(Eh)            E(eV)
   0   2.0000     -14.444365      -393.0511
   1   2.0000     -14.444362      -393.0511
   2   2.0000     -10.304161      -280.3905
   3   2.0000     -10.304131      -280.3896
   4   2.0000     -10.294865      -280.1375
   5   2.0000     -10.294285      -280.1217
   6   2.0000     -10.264398      -279.3085
   7   2.0000      -1.142403       -31.0864
   8   2.0000      -1.031113       -28.0580
   9   2.0000      -0.892695       -24.2915
  10   2.0000      -0.843604       -22.9556
  11   2.0000      -0.798951       -21.7406
  12   2.0000      -0.709091       -19.2953
  13   2.0000      -0.678611       -18.4659
  14   2.0000      -0.633217       -17.2307
  15   2.0000      -0.586780       -15.9671
  16   2.0000      -0.560371       -15.2485
  17   2.0000      -0.551544       -15.0083
  18   2.0000      -0.541206       -14.7270
  19   2.0000      -0.537070       -14.6144
  20   2.0000      -0.493308       -13.4236
  21   2.0000      -0.484361       -13.1801
  22   2.0000      -0.483593       -13.1592
  23   2.0000      -0.368838       -10.0366
  24   2.0000      -0.320578        -8.7234
  25   2.0000      -0.303395        -8.2558
  26   0.0000       0.118665         3.2290
  27   0.0000       0.145840         3.9685
  28   0.0000       0.161331         4.3901
  29   0.0000       0.163876         4.4593
  30   0.0000       0.190468         5.1829

MULLIKEN ATOMIC CHARGES
-----------------------
   0 C :    0.032370
   1 C :    0.032370
   2 N :   -0.245141
   3 N :   -0.245141
   4 C :   -0.123519
   5 H :    0.029849
   6 H :    0.029849
   7 C :    0.105040
   8 C :    0.105040
   9 H :    0.039772
  10 H :    0.039772
  11 H :    0.039772
  12 H :    0.039772
  13 H :    0.060096
  14 H :    0.060096
Sum of atomic charges:   -0.0000000

LOEWDIN ATOMIC CHARGES
----------------------
   0 C :   -0.037577
   1 C :   -0.037577
   2 N :    0.015422
   3 N :    0.015422
   4 C :   -0.253601
   5 H :    0.027626
   6 H :    0.027626
   7 C :    0.031507
   8 C :    0.031507
   9 H :    0.024990
  10 H :    0.024990
  11 H :    0.024990
  12 H :    0.024990
  13 H :    0.039843
  14 H :    0.039843

  Mayer bond orders larger than 0.100000
B(  0-C ,  1-C ) :   1.6444 B(  0-C ,  2-N ) :   1.1259 B(  0-C ,  5-H ) :   0.9886
B(  1-C ,  3-N ) :   1.1259 B(  1-C ,  6-H ) :   0.9886 B(  2-N ,  4-C ) :   1.2241
B(  2-N ,  7-C ) :   0.9560 B(  3-N ,  4-C ) :   1.2241 B(  3-N ,  8-C ) :   0.9560
B(  7-C ,  9-H ) :   0.9797 B(  7-C , 12-H ) :   0.9797 B(  7-C , 13-H ) :   0.9728
B(  8-C , 10-H ) :   0.9797 B(  8-C , 11-H ) :   0.9797 B(  8-C , 14-H ) :   0.9728

Dispersion correction           -0.001728038
FINAL SINGLE POINT ENERGY      -304.499860704394

DIPOLE MOMENT
-------------
                                X             Y             Z
Electronic contribution:     -0.00000      -0.00000      -1.00550
Nuclear contribution   :      0.00000       0.00000       0.01437
                        -----------------------------------------
Total Dipole Moment    :     -0.00000      -0.00000      -0.99113
                        -----------------------------------------
Magnitude (a.u.)       :      0.99113
Magnitude (Debye)      :      2.51924

Dispersion correction in the Hessian             ... Starting D4

VIBRATIONAL FREQUENCIES
-----------------------

Scaling factor for frequencies =  1.000000000  (already applied!)

   0:         0.00 cm**-1
   1:         0.00 cm**-1
   2:         0.00 cm**-1
   3:         0.00 cm**-1
   4:         0.00 cm**-1
   5:         0.00 cm**-1
   6:        46.07 cm**-1
   7:        49.77 cm**-1
   8:       196.59 cm**-1
   9:       278.34 cm**-1
  10:       295.56 cm**-1
  11:       441.80 cm**-1
  12:       631.15 cm**-1
  13:       632.52 cm**-1
  14:       637.87 cm**-1
  15:       737.63 cm**-1
  16:       765.71 cm**-1
  17:       863.08 cm**-1
  18:      1023.20 cm**-1
  19:      1037.43 cm**-1
  20:      1077.74 cm**-1
  21:      1089.52 cm**-1
  22:      1101.18 cm**-1
  23:      1145.25 cm**-1
  24:      1145.71 cm**-1
  25:      1239.02 cm**-1
  26:      1378.05 cm**-1
  27:      1410.83 cm**-1
  28:      1425.58 cm**-1
  29:      1425.80 cm**-1
  30:      1445.17 cm**-1
  31:      1469.95 cm**-1
  32:      1470.99 cm**-1
  33:      1487.87 cm**-1
  34:      1491.67 cm**-1
  35:      1513.63 cm**-1
  36:      1662.68 cm**-1
  37:      3075.43 cm**-1
  38:      3076.25 cm**-1
  39:      3168.96 cm**-1
  40:      3169.07 cm**-1
  41:      3217.57 cm**-1
  42:      3217.71 cm**-1
  43:      3275.59 cm**-1
  44:      3298.35 cm**-1

IR SPECTRUM
-----------

 Mode   freq       eps      Int      T**2         TX        TY        TZ
       cm**-1   L/(mol*cm) km/mol    a.u.
----------------------------------------------------------------------------
  6:     46.07   0.000034    0.17  0.000228  (-0.015089  0.000000  0.000000)
  7:     49.77   0.000000    0.00  0.000000  ( 0.000039  0.000000  0.000000)
  8:    196.59   0.003471   17.54  0.005510  ( 0.074231  0.000000  0.000000)
  9:    278.34   0.000000    0.00  0.000000  (-0.000000  0.000000  0.000000)
 10:    295.56   0.000715    3.61  0.000755  (-0.000000  0.000000  0.027472)
 11:    441.80   0.001863    9.41  0.001316  ( 0.000000 -0.036273 -0.000000)
 12:    631.15   0.000011    0.06  0.000006  ( 0.002361  0.000000  0.000000)
 13:    632.52   0.000461    2.33  0.000227  (-0.000000  0.000000  0.015080)
 14:    637.87   0.000000    0.00  0.000000  ( 0.000000 -0.000000 -0.000000)
 15:    737.63   0.009395   47.48  0.003975  ( 0.063044  0.000000  0.000000)
 16:    765.71   0.004765   24.08  0.001942  (-0.000000  0.044068 -0.000000)
 17:    863.08   0.000000    0.00  0.000000  (-0.000000  0.000000  0.000000)
 18:   1023.20   0.000239    1.21  0.000073  (-0.000000  0.008535 -0.000000)
 19:   1037.43   0.000024    0.12  0.000007  (-0.000000  0.000000  0.002710)
 20:   1077.74   0.000632    3.20  0.000183  ( 0.000000 -0.000000 -0.013531)
 21:   1089.52   0.000049    0.25  0.000014  ( 0.000000 -0.003737  0.000000)
 22:   1101.18   0.002047   10.34  0.000580  ( 0.000000 -0.000000  0.024083)
 23:   1145.25   0.000003    0.01  0.000001  (-0.000892  0.000000  0.000000)
 24:   1145.71   0.000000    0.00  0.000000  ( 0.000000 -0.000000 -0.000000)
 25:   1239.02   0.008094   40.90  0.002039  (-0.000000  0.045151 -0.000000)
 26:   1378.05   0.000422    2.13  0.000096  ( 0.000000  0.009775  0.000000)
 27:   1410.83   0.000173    0.87  0.000038  ( 0.000000  0.000000  0.006183)
 28:   1425.58   0.000649    3.28  0.000142  ( 0.000000 -0.000011 -0.011915)
 29:   1425.80   0.002394   12.10  0.000524  ( 0.000000 -0.022890  0.000006)
 30:   1445.17   0.000002    0.01  0.000000  (-0.000000 -0.000000 -0.000678)
 31:   1469.95   0.000000    0.00  0.000000  (-0.000000  0.000000 -0.000000)
 32:   1470.99   0.004011   20.27  0.000851  ( 0.029170  0.000000 -0.000000)
 33:   1487.87   0.003342   16.89  0.000701  (-0.000000  0.026476 -0.000002)
 34:   1491.67   0.005549   28.04  0.001161  (-0.000000 -0.000002 -0.034072)
 35:   1513.63   0.011369   57.45  0.002344  ( 0.000000 -0.048414  0.000000)
 36:   1662.68   0.000086    0.43  0.000016  (-0.000000  0.000000 -0.004008)
 37:   3075.43   0.019228   97.17  0.001951  (-0.000001  0.044171  0.000000)
 38:   3076.25   0.000001    0.00  0.000000  ( 0.000000 -0.000044  0.000301)
 39:   3168.96   0.000001    0.00  0.000000  (-0.000280  0.000000 -0.000000)
 40:   3169.07   0.007126   36.01  0.000702  (-0.026490 -0.000001  0.000000)
 41:   3217.57   0.000375    1.90  0.000036  (-0.000000  0.000001 -0.006031)
 42:   3217.71   0.000157    0.79  0.000015  ( 0.000001  0.003905  0.000002)
 43:   3275.59   0.000245    1.24  0.000023  (-0.000000  0.004829  0.000000)
 44:   3298.35   0.000090    0.45  0.000008  ( 0.000000  0.000000  0.002910)

--------------------------
THERMOCHEMISTRY AT 298.15K
--------------------------

Temperature         ... 298.15 K
Pressure            ... 1.00 atm
Total Mass          ... 96.13 AMU

Throughout the following assumptions are being made:
  (1) The electronic state is orbitally nondegenerate
  (2) There are no thermally accessible electronically excited states
  (3) Hindered rotations indicated by low frequency modes are not
      treated as such but are treated as vibrations and this may
      cause some error
  (4) All equations used are the standard statistical mechanics
      equations for an ideal gas
  (5) All vibrations are strictly harmonic

freq.      46.07  E(vib)   ...       0.53
freq.      49.77  E(vib)   ...       0.52
freq.     196.59  E(vib)   ...       0.36
freq.     278.34  E(vib)   ...       0.28
freq.     295.56  E(vib)   ...       0.27
freq.     441.80  E(vib)   ...       0.17
freq.     631.15  E(vib)   ...       0.09
freq.     632.52  E(vib)   ...       0.09
freq.     637.87  E(vib)   ...       0.09
freq.     737.63  E(vib)   ...       0.06
freq.     765.71  E(vib)   ...       0.06
freq.     863.08  E(vib)   ...       0.04
freq.    1023.20  E(vib)   ...       0.02
freq.    1037.43  E(vib)   ...       0.02
freq.    1077.74  E(vib)   ...       0.02
freq.    1089.52  E(vib)   ...       0.02
freq.    1101.18  E(vib)   ...       0.02
freq.    1145.25  E(vib)   ...       0.01
freq.    1145.71  E(vib)   ...       0.01
freq.    1239.02  E(vib)   ...       0.01
freq.    1378.05  E(vib)   ...       0.01
freq.    1410.83  E(vib)   ...       0.00
freq.    1425.58  E(vib)   ...       0.00
freq.    1425.80  E(vib)   ...       0.00
freq.    1445.17  E(vib)   ...       0.00
freq.    1469.95  E(vib)   ...       0.00
freq.    1470.99  E(vib)   ...       0.00
freq.    1487.87  E(vib)   ...       0.00
freq.    1491.67  E(vib)   ...       0.00
freq.    1513.63  E(vib)   ...       0.00
freq.    1662.68  E(vib)   ...       0.00
freq.    3075.43  E(vib)   ...       0.00
freq.    3076.25  E(vib)   ...       0.00
freq.    3168.96  E(vib)   ...       0.00
freq.    3169.07  E(vib)   ...       0.00
freq.    3217.57  E(vib)   ...       0.00
freq.    3217.71  E(vib)   ...       0.00
freq.    3275.59  E(vib)   ...       0.00
freq.    3298.35  E(vib)   ...       0.00

------------
INNER ENERGY
------------

The inner energy is: U= E(el) + E(ZPE) + E(vib) + E(rot) + E(trans)
    E(el)   - is the total energy from the electronic structure calculation
              = E(kin-el) + E(nuc-el) + E(el-el) + E(nuc-nuc)
    E(ZPE)  - the the zero temperature vibrational energy from the frequency calculation
    E(vib)  - the the finite temperature correction to E(ZPE) due to population
              of excited vibrational states
    E(rot)  - is the rotational thermal energy
    E(trans)- is the translational thermal energy

Summary of contributions to the inner energy U:
Electronic energy                ...   -304.49986070 Eh
Zero point energy                ...      0.12784237 Eh      80.22 kcal/mol
Thermal vibrational correction   ...      0.00432829 Eh       2.72 kcal/mol
Thermal rotational correction    ...      0.00141627 Eh       0.89 kcal/mol
Thermal translational correction ...      0.00141627 Eh       0.89 kcal/mol
-----------------------------------------------------------------------
Total thermal energy                   -304.36485751 Eh

Summary of corrections to the electronic energy:
(perhaps to be used in another calculation)
Total thermal correction                  0.00716083 Eh       4.49 kcal/mol
Non-thermal (ZPE) correction              0.12784237 Eh      80.22 kcal/mol
-----------------------------------------------------------------------
Total correction                          0.13500319 Eh      84.72 kcal/mol

--------
ENTHALPY
--------

The enthalpy is H = U + kB*T
                kB is Boltzmann's constant
Total free energy                 ...   -304.36485751 Eh
Thermal Enthalpy correction       ...      0.00094421 Eh       0.59 kcal/mol
-----------------------------------------------------------------------
Total Enthalpy                    ...   -304.36391330 Eh

Note: Rotational entropy computed according to Herzberg
Infrared and Raman Spectra, Chapter V,1, Van Nostrand Reinhold, 1945
Point Group:  C2v, Symmetry Number:   2
Rotational constants in cm-1:     0.236516     0.069833     0.055051

Vibrational entropy computed according to the QRRHO of S. Grimme
Chem.Eur.J. 2012 18 9955

-------
ENTROPY
-------

The entropy contributions are T*S = T*(S(el)+S(vib)+S(rot)+S(trans))
     S(el)   - electronic entropy
     S(vib)  - vibrational entropy
     S(rot)  - rotational entropy
     S(trans)- translational entropy
The entropies will be listed as multiplied by the temperature to get
units of energy

Electronic entropy                ...      0.00000000 Eh      0.00 kcal/mol
Vibrational entropy               ...      0.00750307 Eh      4.71 kcal/mol
Rotational entropy                ...      0.01216235 Eh      7.63 kcal/mol
Translational entropy             ...      0.01881539 Eh     11.81 kcal/mol
-----------------------------------------------------------------------
Final entropy term                ...      0.03848081 Eh     24.15 kcal/mol

In case the symmetry of your molecule has not been determined correctly
or in case you have a reason to use a different symmetry number we print
out the resulting rotational entropy values for sn=1,12 :
 --------------------------------------------------------
|  sn= 1 | S(rot)=       0.01281681 Eh      8.04 kcal/mol|
|  sn= 2 | S(rot)=       0.01216235 Eh      7.63 kcal/mol|
|  sn= 3 | S(rot)=       0.01177952 Eh      7.39 kcal/mol|
|  sn= 4 | S(rot)=       0.01150790 Eh      7.22 kcal/mol|
|  sn= 5 | S(rot)=       0.01129721 Eh      7.09 kcal/mol|
|  sn= 6 | S(rot)=       0.01112506 Eh      6.98 kcal/mol|
|  sn= 7 | S(rot)=       0.01097952 Eh      6.89 kcal/mol|
|  sn= 8 | S(rot)=       0.01085344 Eh      6.81 kcal/mol|
|  sn= 9 | S(rot)=       0.01074223 Eh      6.74 kcal/mol|
|  sn=10 | S(rot)=       0.01064275 Eh      6.68 kcal/mol|
|  sn=11 | S(rot)=       0.01055276 Eh      6.62 kcal/mol|
|  sn=12 | S(rot)=       0.01047061 Eh      6.57 kcal/mol|
 --------------------------------------------------------

-------------------
GIBBS FREE ENERGY
-------------------

The Gibbs free energy is G = H - T*S

Total enthalpy                    ...   -304.36391330 Eh
Total entropy correction          ...     -0.03848081 Eh    -24.15 kcal/mol
-----------------------------------------------------------------------
Final Gibbs free energy         ...   -304.40239411 Eh

For completeness - the Gibbs free energy minus the electronic energy
G-E(el)                           ...      0.09746660 Eh     61.16 kcal/mol

                             ****ORCA TERMINATED NORMALLY****
TOTAL RUN TIME: 0 days 0 hours 6 minutes 52 seconds 514 msec
