                         Program Version 5.0.3 -  RELEASE  -
|  1> # ORCAForces - ../2023_02/pKa_prediction/Yates_carbene_xyzs/Water/MeMe_water.inp
|  2> # Basic Mode
|  3> #
|  4> ! Opt FREQ wB97X D4 Def2-SVP SlowConv TightSCF DEFGRID2 Def2/J RIJCOSX CPCM(Water)
|  5>
|  6> %maxcore 4500
|  7>
|  8> %PAL NPROCS 4 END
|  9>
| 10> %geom
| 11> Maxiter 150
| 12> END
| 13>
| 14> * xyzfile 1 1 MeMe.xyz
| 15>
| 16>                          ****END OF INPUT****
 Total Charge           Charge          ....    1
 Multiplicity           Mult            ....    1
 Number of Electrons    NEL             ....   68
Dispersion correction           -0.002853594
FINAL SINGLE POINT ENERGY      -383.586678599813
Dispersion correction            ... Starting D4
Dispersion correction           -0.002859413
FINAL SINGLE POINT ENERGY      -383.587718792066
Dispersion correction            ... Starting D4
Dispersion correction           -0.002860317
FINAL SINGLE POINT ENERGY      -383.587746314567
Dispersion correction            ... Starting D4
Dispersion correction           -0.002860676
FINAL SINGLE POINT ENERGY      -383.587756912825
Dispersion correction            ... Starting D4
                    ***********************HURRAY********************

CARTESIAN COORDINATES (ANGSTROEM)
---------------------------------
  C     -0.000000    0.684782   -0.659265
  C     -0.000000   -0.684782   -0.659265
  N     -0.000000    1.080134    0.669636
  N      0.000000   -1.080134    0.669637
  C     -0.000000    0.000000    1.443801
  C     -0.000000    2.459968    1.134552
  C      0.000001   -2.459968    1.134552
  H     -0.897604    2.972470    0.764011
  H     -0.897603   -2.972471    0.764012
  H      0.897605   -2.972470    0.764012
  H      0.897604    2.972470    0.764013
  H     -0.000001    2.465096    2.230640
  H      0.000000   -2.465097    2.230640
  H     -0.000000    0.000000    2.533890
  C      0.000000    1.668349   -1.776878
  C     -0.000001   -1.668349   -1.776877
  H      0.891150    2.313551   -1.737182
  H      0.891148   -2.313551   -1.737182
  H     -0.891150   -2.313551   -1.737181
  H     -0.891149    2.313551   -1.737182
  H      0.000000    1.141061   -2.739330
  H     -0.000001   -1.141061   -2.739329

 Multiplicity           Mult            ....    1
 Number of Electrons    NEL             ....   68
 Basis Dimension        Dim             ....  191

ORBITAL ENERGIES
----------------

  NO   OCC          E(Eh)            E(eV)
   0   2.0000     -14.506604      -394.7448
   1   2.0000     -14.506586      -394.7443
   2   2.0000     -10.378699      -282.4187
   3   2.0000     -10.332178      -281.1529
   4   2.0000     -10.331679      -281.1393
   5   2.0000     -10.326098      -280.9874
   6   2.0000     -10.326078      -280.9869
   7   2.0000     -10.287000      -279.9235
   8   2.0000     -10.286947      -279.9221
   9   2.0000      -1.210848       -32.9489
  10   2.0000      -1.090636       -29.6777
  11   2.0000      -0.953795       -25.9541
  12   2.0000      -0.911084       -24.7919
  13   2.0000      -0.876384       -23.8476
  14   2.0000      -0.825006       -22.4496
  15   2.0000      -0.823752       -22.4154
  16   2.0000      -0.732633       -19.9359
  17   2.0000      -0.723422       -19.6853
  18   2.0000      -0.661631       -18.0039
  19   2.0000      -0.642019       -17.4702
  20   2.0000      -0.602991       -16.4082
  21   2.0000      -0.591693       -16.1008
  22   2.0000      -0.581865       -15.8333
  23   2.0000      -0.553442       -15.0599
  24   2.0000      -0.538756       -14.6603
  25   2.0000      -0.538559       -14.6549
  26   2.0000      -0.529882       -14.4188
  27   2.0000      -0.522938       -14.2299
  28   2.0000      -0.508906       -13.8480
  29   2.0000      -0.506860       -13.7924
  30   2.0000      -0.504219       -13.7205
  31   2.0000      -0.496965       -13.5231
  32   2.0000      -0.409035       -11.1304
  33   2.0000      -0.348734        -9.4895
  34   0.0000       0.067371         1.8333
  35   0.0000       0.107609         2.9282
  36   0.0000       0.138461         3.7677
  37   0.0000       0.153815         4.1855
  38   0.0000       0.167667         4.5624

MULLIKEN ATOMIC CHARGES
-----------------------
   0 C :   -0.089671
   1 C :   -0.089665
   2 N :   -0.221390
   3 N :   -0.221390
   4 C :    0.208764
   5 C :    0.079840
   6 C :    0.079839
   7 H :    0.092091
   8 H :    0.092091
   9 H :    0.092091
  10 H :    0.092091
  11 H :    0.093144
  12 H :    0.093144
  13 H :    0.136562
  14 C :    0.077711
  15 C :    0.077710
  16 H :    0.073009
  17 H :    0.073009
  18 H :    0.073009
  19 H :    0.073009
  20 H :    0.057501
  21 H :    0.057501
Sum of atomic charges:    1.0000000

LOEWDIN ATOMIC CHARGES
----------------------
   0 C :   -0.006804
   1 C :   -0.006804
   2 N :    0.089235
   3 N :    0.089235
   4 C :    0.120416
   5 C :    0.053987
   6 C :    0.053987
   7 H :    0.051777
   8 H :    0.051777
   9 H :    0.051777
  10 H :    0.051777
  11 H :    0.055567
  12 H :    0.055567
  13 H :    0.069204
  14 C :   -0.050586
  15 C :   -0.050587
  16 H :    0.053385
  17 H :    0.053384
  18 H :    0.053384
  19 H :    0.053385
  20 H :    0.053469
  21 H :    0.053469

  Mayer bond orders larger than 0.100000
B(  0-C ,  1-C ) :   1.6284 B(  0-C ,  2-N ) :   1.1610 B(  0-C , 14-C ) :   1.0927
B(  1-C ,  3-N ) :   1.1610 B(  1-C , 15-C ) :   1.0927 B(  2-N ,  4-C ) :   1.3540
B(  2-N ,  5-C ) :   0.9102 B(  3-N ,  4-C ) :   1.3540 B(  3-N ,  6-C ) :   0.9102
B(  4-C , 13-H ) :   0.9660 B(  5-C ,  7-H ) :   0.9717 B(  5-C , 10-H ) :   0.9717
B(  5-C , 11-H ) :   0.9694 B(  6-C ,  8-H ) :   0.9717 B(  6-C ,  9-H ) :   0.9717
B(  6-C , 12-H ) :   0.9694 B( 14-C , 16-H ) :   0.9474 B( 14-C , 19-H ) :   0.9474
B( 14-C , 20-H ) :   0.9421 B( 15-C , 17-H ) :   0.9474 B( 15-C , 18-H ) :   0.9474
B( 15-C , 21-H ) :   0.9421

Dispersion correction           -0.002860624
FINAL SINGLE POINT ENERGY      -383.587757811252

DIPOLE MOMENT
-------------
                                X             Y             Z
Electronic contribution:     -0.00000       0.00000       3.55314
Nuclear contribution   :      0.00000      -0.00000      -2.45968
                        -----------------------------------------
Total Dipole Moment    :      0.00000       0.00000       1.09346
                        -----------------------------------------
Magnitude (a.u.)       :      1.09346
Magnitude (Debye)      :      2.77935

Dispersion correction in the Hessian             ... Starting D4

VIBRATIONAL FREQUENCIES
-----------------------

Scaling factor for frequencies =  1.000000000  (already applied!)

   0:         0.00 cm**-1
   1:         0.00 cm**-1
   2:         0.00 cm**-1
   3:         0.00 cm**-1
   4:         0.00 cm**-1
   5:         0.00 cm**-1
   6:        97.21 cm**-1
   7:       100.24 cm**-1
   8:       135.86 cm**-1
   9:       155.25 cm**-1
  10:       158.65 cm**-1
  11:       173.63 cm**-1
  12:       274.60 cm**-1
  13:       275.20 cm**-1
  14:       291.00 cm**-1
  15:       302.01 cm**-1
  16:       324.13 cm**-1
  17:       537.51 cm**-1
  18:       577.41 cm**-1
  19:       621.75 cm**-1
  20:       643.47 cm**-1
  21:       694.04 cm**-1
  22:       742.39 cm**-1
  23:       860.24 cm**-1
  24:       861.72 cm**-1
  25:       977.28 cm**-1
  26:      1046.41 cm**-1
  27:      1069.00 cm**-1
  28:      1081.32 cm**-1
  29:      1105.89 cm**-1
  30:      1118.32 cm**-1
  31:      1140.79 cm**-1
  32:      1145.56 cm**-1
  33:      1193.85 cm**-1
  34:      1233.50 cm**-1
  35:      1282.70 cm**-1
  36:      1396.27 cm**-1
  37:      1401.64 cm**-1
  38:      1417.15 cm**-1
  39:      1434.57 cm**-1
  40:      1436.95 cm**-1
  41:      1437.59 cm**-1
  42:      1442.43 cm**-1
  43:      1444.21 cm**-1
  44:      1445.30 cm**-1
  45:      1445.89 cm**-1
  46:      1447.93 cm**-1
  47:      1458.91 cm**-1
  48:      1473.03 cm**-1
  49:      1528.75 cm**-1
  50:      1545.03 cm**-1
  51:      1674.47 cm**-1
  52:      1740.88 cm**-1
  53:      3075.46 cm**-1
  54:      3076.48 cm**-1
  55:      3096.69 cm**-1
  56:      3097.04 cm**-1
  57:      3169.10 cm**-1
  58:      3169.28 cm**-1
  59:      3203.58 cm**-1
  60:      3206.40 cm**-1
  61:      3211.55 cm**-1
  62:      3211.56 cm**-1
  63:      3228.34 cm**-1
  64:      3228.39 cm**-1
  65:      3301.00 cm**-1

IR SPECTRUM
-----------

 Mode   freq       eps      Int      T**2         TX        TY        TZ
       cm**-1   L/(mol*cm) km/mol    a.u.
----------------------------------------------------------------------------
  6:     97.21   0.000058    0.29  0.000186  ( 0.013647 -0.000000  0.000000)
  7:    100.24   0.000000    0.00  0.000000  ( 0.000003 -0.000000  0.000000)
  8:    135.86   0.000000    0.00  0.000000  (-0.000000  0.000000  0.000000)
  9:    155.25   0.000296    1.49  0.000594  ( 0.024378  0.000000 -0.000000)
 10:    158.65   0.000000    0.00  0.000000  ( 0.000002 -0.000000 -0.000000)
 11:    173.63   0.001941    9.81  0.003488  (-0.059063 -0.000000 -0.000000)
 12:    274.60   0.000212    1.07  0.000240  ( 0.000000  0.000003 -0.015506)
 13:    275.20   0.000262    1.32  0.000297  (-0.000000  0.017235  0.000003)
 14:    291.00   0.000150    0.76  0.000160  (-0.000001 -0.000000 -0.012668)
 15:    302.01   0.002039   10.31  0.002107  (-0.045906 -0.000000  0.000000)
 16:    324.13   0.000000    0.00  0.000000  ( 0.000000 -0.000000  0.000000)
 17:    537.51   0.000447    2.26  0.000260  (-0.000000 -0.016114  0.000000)
 18:    577.41   0.000573    2.90  0.000310  ( 0.000000 -0.017597  0.000000)
 19:    621.75   0.000468    2.36  0.000235  (-0.000000  0.000000  0.015320)
 20:    643.47   0.003720   18.80  0.001804  ( 0.042472  0.000000 -0.000000)
 21:    694.04   0.000000    0.00  0.000000  (-0.000000 -0.000000 -0.000000)
 22:    742.39   0.000516    2.61  0.000217  ( 0.000000  0.000000  0.014724)
 23:    860.24   0.003217   16.26  0.001167  ( 0.034163  0.000000 -0.000000)
 24:    861.72   0.001737    8.78  0.000629  ( 0.000000 -0.025084 -0.000000)
 25:    977.28   0.000122    0.62  0.000039  ( 0.000000 -0.000000 -0.006234)
 26:   1046.41   0.001754    8.86  0.000523  ( 0.022868  0.000000  0.000000)
 27:   1069.00   0.000000    0.00  0.000000  (-0.000000  0.000000  0.000000)
 28:   1081.32   0.002338   11.81  0.000675  (-0.000000 -0.025974 -0.000000)
 29:   1105.89   0.000279    1.41  0.000079  ( 0.000000  0.000000  0.008871)
 30:   1118.32   0.002639   13.34  0.000736  (-0.000000 -0.027136  0.000000)
 31:   1140.79   0.000000    0.00  0.000000  (-0.000000  0.000000  0.000000)
 32:   1145.56   0.000134    0.68  0.000037  (-0.006049  0.000000 -0.000000)
 33:   1193.85   0.000015    0.08  0.000004  (-0.000000  0.000000 -0.001979)
 34:   1233.50   0.015726   79.47  0.003979  ( 0.000000 -0.063076  0.000000)
 35:   1282.70   0.000669    3.38  0.000163  ( 0.000000 -0.012758 -0.000000)
 36:   1396.27   0.000144    0.73  0.000032  ( 0.000000  0.000000  0.005673)
 37:   1401.64   0.001530    7.73  0.000341  (-0.000000 -0.018456  0.000000)
 38:   1417.15   0.000246    1.24  0.000054  (-0.000000  0.000000 -0.007353)
 39:   1434.57   0.005784   29.23  0.001258  (-0.000000  0.035472  0.000000)
 40:   1436.95   0.001301    6.57  0.000282  ( 0.016806  0.000000 -0.000000)
 41:   1437.59   0.000000    0.00  0.000000  (-0.000002  0.000000 -0.000000)
 42:   1442.43   0.001409    7.12  0.000305  ( 0.000000 -0.017460 -0.000000)
 43:   1444.21   0.000181    0.91  0.000039  ( 0.000001 -0.000000  0.006252)
 44:   1445.30   0.000000    0.00  0.000000  ( 0.000001 -0.000000  0.000000)
 45:   1445.89   0.015313   77.39  0.003305  (-0.057490 -0.000000  0.000002)
 46:   1447.93   0.012023   60.76  0.002591  ( 0.000002 -0.000000  0.050905)
 47:   1458.91   0.000013    0.07  0.000003  (-0.000000  0.001660 -0.000000)
 48:   1473.03   0.004819   24.35  0.001021  ( 0.000000 -0.000000  0.031951)
 49:   1528.75   0.000012    0.06  0.000002  ( 0.000000 -0.001553 -0.000000)
 50:   1545.03   0.000122    0.62  0.000025  ( 0.000000 -0.000000  0.004962)
 51:   1674.47   0.033839  171.01  0.006306  (-0.000000  0.079413 -0.000000)
 52:   1740.88   0.007291   36.85  0.001307  ( 0.000000  0.000000 -0.036153)
 53:   3075.46   0.002898   14.65  0.000294  ( 0.000000 -0.017149 -0.000001)
 54:   3076.48   0.001265    6.39  0.000128  ( 0.000000 -0.000002  0.011329)
 55:   3096.69   0.004324   21.85  0.000436  ( 0.000000  0.020874  0.000001)
 56:   3097.04   0.000331    1.67  0.000033  (-0.000000 -0.000004  0.005778)
 57:   3169.10   0.001149    5.81  0.000113  (-0.010636  0.000000  0.000000)
 58:   3169.28   0.000000    0.00  0.000000  (-0.000009 -0.000000 -0.000000)
 59:   3203.58   0.000272    1.37  0.000026  ( 0.000000 -0.005146  0.000000)
 60:   3206.40   0.000623    3.15  0.000061  (-0.000000 -0.000000 -0.007788)
 61:   3211.55   0.000207    1.05  0.000020  (-0.004487 -0.000000 -0.000000)
 62:   3211.56   0.000000    0.00  0.000000  (-0.000037  0.000000 -0.000000)
 63:   3228.34   0.000017    0.09  0.000002  ( 0.000000  0.000001  0.001276)
 64:   3228.39   0.000005    0.02  0.000000  (-0.000000 -0.000682  0.000002)
 65:   3301.00   0.011152   56.36  0.001054  ( 0.000000  0.000000  0.032469)

--------------------------
THERMOCHEMISTRY AT 298.15K
--------------------------

Temperature         ... 298.15 K
Pressure            ... 1.00 atm
Total Mass          ... 125.19 AMU

Throughout the following assumptions are being made:
  (1) The electronic state is orbitally nondegenerate
  (2) There are no thermally accessible electronically excited states
  (3) Hindered rotations indicated by low frequency modes are not
      treated as such but are treated as vibrations and this may
      cause some error
  (4) All equations used are the standard statistical mechanics
      equations for an ideal gas
  (5) All vibrations are strictly harmonic

freq.      97.21  E(vib)   ...       0.46
freq.     100.24  E(vib)   ...       0.46
freq.     135.86  E(vib)   ...       0.42
freq.     155.25  E(vib)   ...       0.40
freq.     158.65  E(vib)   ...       0.39
freq.     173.63  E(vib)   ...       0.38
freq.     274.60  E(vib)   ...       0.28
freq.     275.20  E(vib)   ...       0.28
freq.     291.00  E(vib)   ...       0.27
freq.     302.01  E(vib)   ...       0.26
freq.     324.13  E(vib)   ...       0.25
freq.     537.51  E(vib)   ...       0.12
freq.     577.41  E(vib)   ...       0.11
freq.     621.75  E(vib)   ...       0.09
freq.     643.47  E(vib)   ...       0.09
freq.     694.04  E(vib)   ...       0.07
freq.     742.39  E(vib)   ...       0.06
freq.     860.24  E(vib)   ...       0.04
freq.     861.72  E(vib)   ...       0.04
freq.     977.28  E(vib)   ...       0.03
freq.    1046.41  E(vib)   ...       0.02
freq.    1069.00  E(vib)   ...       0.02
freq.    1081.32  E(vib)   ...       0.02
freq.    1105.89  E(vib)   ...       0.02
freq.    1118.32  E(vib)   ...       0.01
freq.    1140.79  E(vib)   ...       0.01
freq.    1145.56  E(vib)   ...       0.01
freq.    1193.85  E(vib)   ...       0.01
freq.    1233.50  E(vib)   ...       0.01
freq.    1282.70  E(vib)   ...       0.01
freq.    1396.27  E(vib)   ...       0.00
freq.    1401.64  E(vib)   ...       0.00
freq.    1417.15  E(vib)   ...       0.00
freq.    1434.57  E(vib)   ...       0.00
freq.    1436.95  E(vib)   ...       0.00
freq.    1437.59  E(vib)   ...       0.00
freq.    1442.43  E(vib)   ...       0.00
freq.    1444.21  E(vib)   ...       0.00
freq.    1445.30  E(vib)   ...       0.00
freq.    1445.89  E(vib)   ...       0.00
freq.    1447.93  E(vib)   ...       0.00
freq.    1458.91  E(vib)   ...       0.00
freq.    1473.03  E(vib)   ...       0.00
freq.    1528.75  E(vib)   ...       0.00
freq.    1545.03  E(vib)   ...       0.00
freq.    1674.47  E(vib)   ...       0.00
freq.    1740.88  E(vib)   ...       0.00
freq.    3075.46  E(vib)   ...       0.00
freq.    3076.48  E(vib)   ...       0.00
freq.    3096.69  E(vib)   ...       0.00
freq.    3097.04  E(vib)   ...       0.00
freq.    3169.10  E(vib)   ...       0.00
freq.    3169.28  E(vib)   ...       0.00
freq.    3203.58  E(vib)   ...       0.00
freq.    3206.40  E(vib)   ...       0.00
freq.    3211.55  E(vib)   ...       0.00
freq.    3211.56  E(vib)   ...       0.00
freq.    3228.34  E(vib)   ...       0.00
freq.    3228.39  E(vib)   ...       0.00
freq.    3301.00  E(vib)   ...       0.00

------------
INNER ENERGY
------------

The inner energy is: U= E(el) + E(ZPE) + E(vib) + E(rot) + E(trans)
    E(el)   - is the total energy from the electronic structure calculation
              = E(kin-el) + E(nuc-el) + E(el-el) + E(nuc-nuc)
    E(ZPE)  - the the zero temperature vibrational energy from the frequency calculation
    E(vib)  - the the finite temperature correction to E(ZPE) due to population
              of excited vibrational states
    E(rot)  - is the rotational thermal energy
    E(trans)- is the translational thermal energy

Summary of contributions to the inner energy U:
Electronic energy                ...   -383.58775781 Eh
Zero point energy                ...      0.19744141 Eh     123.90 kcal/mol
Thermal vibrational correction   ...      0.00750239 Eh       4.71 kcal/mol
Thermal rotational correction    ...      0.00141627 Eh       0.89 kcal/mol
Thermal translational correction ...      0.00141627 Eh       0.89 kcal/mol
-----------------------------------------------------------------------
Total thermal energy                   -383.37998147 Eh

Summary of corrections to the electronic energy:
(perhaps to be used in another calculation)
Total thermal correction                  0.01033493 Eh       6.49 kcal/mol
Non-thermal (ZPE) correction              0.19744141 Eh     123.90 kcal/mol
-----------------------------------------------------------------------
Total correction                          0.20777634 Eh     130.38 kcal/mol

--------
ENTHALPY
--------

The enthalpy is H = U + kB*T
                kB is Boltzmann's constant
Total free energy                 ...   -383.37998147 Eh
Thermal Enthalpy correction       ...      0.00094421 Eh       0.59 kcal/mol
-----------------------------------------------------------------------
Total Enthalpy                    ...   -383.37903726 Eh

Note: Rotational entropy computed according to Herzberg
Infrared and Raman Spectra, Chapter V,1, Van Nostrand Reinhold, 1945
Point Group:  C2v, Symmetry Number:   2
Rotational constants in cm-1:     0.081296     0.050365     0.031857

Vibrational entropy computed according to the QRRHO of S. Grimme
Chem.Eur.J. 2012 18 9955

-------
ENTROPY
-------

The entropy contributions are T*S = T*(S(el)+S(vib)+S(rot)+S(trans))
     S(el)   - electronic entropy
     S(vib)  - vibrational entropy
     S(rot)  - rotational entropy
     S(trans)- translational entropy
The entropies will be listed as multiplied by the temperature to get
units of energy

Electronic entropy                ...      0.00000000 Eh      0.00 kcal/mol
Vibrational entropy               ...      0.01310610 Eh      8.22 kcal/mol
Rotational entropy                ...      0.01307903 Eh      8.21 kcal/mol
Translational entropy             ...      0.01918948 Eh     12.04 kcal/mol
-----------------------------------------------------------------------
Final entropy term                ...      0.04537461 Eh     28.47 kcal/mol

In case the symmetry of your molecule has not been determined correctly
or in case you have a reason to use a different symmetry number we print
out the resulting rotational entropy values for sn=1,12 :
 --------------------------------------------------------
|  sn= 1 | S(rot)=       0.01373348 Eh      8.62 kcal/mol|
|  sn= 2 | S(rot)=       0.01307903 Eh      8.21 kcal/mol|
|  sn= 3 | S(rot)=       0.01269620 Eh      7.97 kcal/mol|
|  sn= 4 | S(rot)=       0.01242457 Eh      7.80 kcal/mol|
|  sn= 5 | S(rot)=       0.01221388 Eh      7.66 kcal/mol|
|  sn= 6 | S(rot)=       0.01204174 Eh      7.56 kcal/mol|
|  sn= 7 | S(rot)=       0.01189619 Eh      7.46 kcal/mol|
|  sn= 8 | S(rot)=       0.01177012 Eh      7.39 kcal/mol|

                             ****ORCA TERMINATED NORMALLY****
TOTAL RUN TIME: 0 days 0 hours 8 minutes 35 seconds 962 msec
