                         Program Version 5.0.4 -  RELEASE  -
|  1> # ORCA 5.0.4 - 2+.inp # write input file
|  2> # Basic Mode
|  3> #
|  4> ! Freq wB97X Def2-SVP D4 SlowConv TightSCF DEFGRID2 Def2/J RIJCOSX
|  5>
|  6>
|  7>
|  8> %maxcore 4500
|  9>
| 10> %geom
| 11> Maxiter 150
| 12> END
| 13>
| 14> * xyzfile 1 1 2+.xyz
| 15>
| 16>                          ****END OF INPUT****

CARTESIAN COORDINATES (ANGSTROEM)
---------------------------------
  C     -0.000000    0.684782   -0.659265
  C     -0.000000   -0.684782   -0.659265
  N     -0.000000    1.080134    0.669636
  N      0.000000   -1.080134    0.669637
  C     -0.000000    0.000000    1.443801
  C     -0.000000    2.459968    1.134552
  C      0.000001   -2.459968    1.134552
  H     -0.897604    2.972470    0.764011
  H     -0.897603   -2.972471    0.764012
  H      0.897605   -2.972470    0.764012
  H      0.897604    2.972470    0.764013
  H     -0.000001    2.465096    2.230640
  H      0.000000   -2.465097    2.230640
  H     -0.000000    0.000000    2.533890
  C      0.000000    1.668349   -1.776878
  C     -0.000001   -1.668349   -1.776877
  H      0.891150    2.313551   -1.737182
  H      0.891148   -2.313551   -1.737182
  H     -0.891150   -2.313551   -1.737181
  H     -0.891149    2.313551   -1.737182
  H      0.000000    1.141061   -2.739330
  H     -0.000001   -1.141061   -2.739329

 Total Charge           Charge          ....    1
 Multiplicity           Mult            ....    1
 Number of Electrons    NEL             ....   68
 Basis Dimension        Dim             ....  191

ORBITAL ENERGIES
----------------

  NO   OCC          E(Eh)            E(eV)
   0   2.0000     -14.657086      -398.8396
   1   2.0000     -14.657068      -398.8391
   2   2.0000     -10.530895      -286.5602
   3   2.0000     -10.478563      -285.1362
   4   2.0000     -10.478065      -285.1226
   5   2.0000     -10.476806      -285.0884
   6   2.0000     -10.476786      -285.0878
   7   2.0000     -10.427628      -283.7502
   8   2.0000     -10.427575      -283.7488
   9   2.0000      -1.361043       -37.0359
  10   2.0000      -1.241181       -33.7742
  11   2.0000      -1.101056       -29.9612
  12   2.0000      -1.061041       -28.8724
  13   2.0000      -1.020439       -27.7676
  14   2.0000      -0.973028       -26.4774
  15   2.0000      -0.971119       -26.4255
  16   2.0000      -0.880553       -23.9611
  17   2.0000      -0.871612       -23.7178
  18   2.0000      -0.811846       -22.0914
  19   2.0000      -0.791928       -21.5494
  20   2.0000      -0.754622       -20.5343
  21   2.0000      -0.741635       -20.1809
  22   2.0000      -0.731802       -19.9133
  23   2.0000      -0.699179       -19.0256
  24   2.0000      -0.683738       -18.6055
  25   2.0000      -0.682364       -18.5681
  26   2.0000      -0.679140       -18.4803
  27   2.0000      -0.664432       -18.0801
  28   2.0000      -0.657115       -17.8810
  29   2.0000      -0.655176       -17.8282
  30   2.0000      -0.645036       -17.5523
  31   2.0000      -0.640576       -17.4310
  32   2.0000      -0.558708       -15.2032
  33   2.0000      -0.495198       -13.4750
  34   0.0000      -0.084889        -2.3099
  35   0.0000      -0.037217        -1.0127
  36   0.0000      -0.003363        -0.0915
  37   0.0000       0.008729         0.2375
  38   0.0000       0.012263         0.3337

MULLIKEN ATOMIC CHARGES
-----------------------
   0 C :   -0.088983
   1 C :   -0.088978
   2 N :   -0.221958
   3 N :   -0.221958
   4 C :    0.194041
   5 C :    0.070344
   6 C :    0.070343
   7 H :    0.098453
   8 H :    0.098453
   9 H :    0.098453
  10 H :    0.098452
  11 H :    0.089504
  12 H :    0.089504
  13 H :    0.115832
  14 C :    0.075707
  15 C :    0.075707
  16 H :    0.079335
  17 H :    0.079334
  18 H :    0.079335
  19 H :    0.079334
  20 H :    0.064874
  21 H :    0.064873
Sum of atomic charges:    1.0000000

LOEWDIN ATOMIC CHARGES
----------------------
   0 C :   -0.003472
   1 C :   -0.003472
   2 N :    0.087548
   3 N :    0.087548
   4 C :    0.102868
   5 C :    0.053980
   6 C :    0.053980
   7 H :    0.053505
   8 H :    0.053505
   9 H :    0.053505
  10 H :    0.053505
  11 H :    0.052911
  12 H :    0.052911
  13 H :    0.057923
  14 C :   -0.046871
  15 C :   -0.046871
  16 H :    0.055650
  17 H :    0.055650
  18 H :    0.055650
  19 H :    0.055650
  20 H :    0.057198
  21 H :    0.057198

  Mayer bond orders larger than 0.100000
B(  0-C ,  1-C ) :   1.6263 B(  0-C ,  2-N ) :   1.1616 B(  0-C , 14-C ) :   1.0822
B(  1-C ,  3-N ) :   1.1616 B(  1-C , 15-C ) :   1.0822 B(  2-N ,  4-C ) :   1.3525
B(  2-N ,  5-C ) :   0.9047 B(  3-N ,  4-C ) :   1.3525 B(  3-N ,  6-C ) :   0.9047
B(  4-C , 13-H ) :   0.9691 B(  5-C ,  7-H ) :   0.9710 B(  5-C , 10-H ) :   0.9710
B(  5-C , 11-H ) :   0.9705 B(  6-C ,  8-H ) :   0.9710 B(  6-C ,  9-H ) :   0.9710
B(  6-C , 12-H ) :   0.9705 B( 14-C , 16-H ) :   0.9491 B( 14-C , 19-H ) :   0.9491
B( 14-C , 20-H ) :   0.9414 B( 15-C , 17-H ) :   0.9491 B( 15-C , 18-H ) :   0.9491
B( 15-C , 21-H ) :   0.9414

Dispersion correction           -0.002863960
FINAL SINGLE POINT ENERGY      -383.509121609371

DIPOLE MOMENT
-------------
                                X             Y             Z
Electronic contribution:      0.00000       0.00000       3.24836
Nuclear contribution   :     -0.00000      -0.00000      -2.45968
                        -----------------------------------------
Total Dipole Moment    :      0.00000       0.00000       0.78868
                        -----------------------------------------
Magnitude (a.u.)       :      0.78868
Magnitude (Debye)      :      2.00467

Dispersion correction in the Hessian             ... Starting D4

VIBRATIONAL FREQUENCIES
-----------------------

Scaling factor for frequencies =  1.000000000  (already applied!)

   0:         0.00 cm**-1
   1:         0.00 cm**-1
   2:         0.00 cm**-1
   3:         0.00 cm**-1
   4:         0.00 cm**-1
   5:         0.00 cm**-1
   6:       101.88 cm**-1
   7:       106.07 cm**-1
   8:       141.73 cm**-1
   9:       166.83 cm**-1
  10:       180.26 cm**-1
  11:       182.73 cm**-1
  12:       275.91 cm**-1
  13:       278.78 cm**-1
  14:       289.92 cm**-1
  15:       303.82 cm**-1
  16:       324.81 cm**-1
  17:       541.20 cm**-1
  18:       577.26 cm**-1
  19:       624.25 cm**-1
  20:       647.88 cm**-1
  21:       692.74 cm**-1
  22:       742.93 cm**-1
  23:       849.49 cm**-1
  24:       864.79 cm**-1
  25:       975.86 cm**-1
  26:      1048.57 cm**-1
  27:      1070.75 cm**-1
  28:      1085.03 cm**-1
  29:      1106.98 cm**-1
  30:      1120.72 cm**-1
  31:      1142.16 cm**-1
  32:      1147.62 cm**-1
  33:      1195.80 cm**-1
  34:      1242.25 cm**-1
  35:      1290.24 cm**-1
  36:      1400.19 cm**-1
  37:      1410.47 cm**-1
  38:      1422.39 cm**-1
  39:      1445.79 cm**-1
  40:      1450.48 cm**-1
  41:      1452.93 cm**-1
  42:      1453.01 cm**-1
  43:      1456.76 cm**-1
  44:      1458.62 cm**-1
  45:      1462.90 cm**-1
  46:      1465.06 cm**-1
  47:      1472.21 cm**-1
  48:      1486.36 cm**-1
  49:      1534.01 cm**-1
  50:      1546.30 cm**-1
  51:      1682.98 cm**-1
  52:      1741.14 cm**-1
  53:      3077.41 cm**-1
  54:      3077.69 cm**-1
  55:      3098.41 cm**-1
  56:      3098.46 cm**-1
  57:      3170.89 cm**-1
  58:      3170.94 cm**-1
  59:      3207.66 cm**-1
  60:      3209.15 cm**-1
  61:      3212.55 cm**-1
  62:      3212.56 cm**-1
  63:      3231.12 cm**-1
  64:      3231.16 cm**-1
  65:      3294.26 cm**-1

IR SPECTRUM
-----------

 Mode   freq       eps      Int      T**2         TX        TY        TZ
       cm**-1   L/(mol*cm) km/mol    a.u.
----------------------------------------------------------------------------
  6:    101.88   0.000101    0.51  0.000310  ( 0.017610 -0.000000  0.000000)
  7:    106.07   0.000000    0.00  0.000000  ( 0.000011  0.000000  0.000000)
  8:    141.73   0.000000    0.00  0.000000  ( 0.000000 -0.000000 -0.000000)
  9:    166.83   0.000846    4.27  0.001582  (-0.039775 -0.000000 -0.000000)
 10:    180.26   0.000491    2.48  0.000850  ( 0.029154 -0.000000 -0.000000)
 11:    182.73   0.000000    0.00  0.000000  (-0.000015  0.000000  0.000000)
 12:    275.91   0.000086    0.43  0.000097  (-0.000000  0.000000  0.009856)
 13:    278.78   0.000035    0.18  0.000039  ( 0.000000 -0.006264  0.000000)
 14:    289.92   0.000129    0.65  0.000139  ( 0.000000  0.000000  0.011804)
 15:    303.82   0.001026    5.19  0.001054  ( 0.032465 -0.000000 -0.000000)
 16:    324.81   0.000000    0.00  0.000000  (-0.000001  0.000000 -0.000000)
 17:    541.20   0.000201    1.02  0.000116  ( 0.000000  0.010763 -0.000000)
 18:    577.26   0.000317    1.60  0.000171  (-0.000000  0.013085  0.000000)
 19:    624.25   0.000450    2.27  0.000225  ( 0.000000 -0.000000 -0.014992)
 20:    647.88   0.002173   10.98  0.001047  ( 0.032351  0.000000 -0.000000)
 21:    692.74   0.000000    0.00  0.000000  ( 0.000000  0.000000  0.000000)
 22:    742.93   0.000642    3.24  0.000270  (-0.000000 -0.000000 -0.016419)
 23:    849.49   0.002160   10.91  0.000793  ( 0.028166 -0.000000 -0.000000)
 24:    864.79   0.001661    8.40  0.000599  (-0.000000  0.024484  0.000000)
 25:    975.86   0.000080    0.41  0.000026  ( 0.000000  0.000000  0.005065)
 26:   1048.57   0.000476    2.41  0.000142  ( 0.011906  0.000000  0.000000)
 27:   1070.75   0.000000    0.00  0.000000  ( 0.000000  0.000000 -0.000000)
 28:   1085.03   0.000282    1.42  0.000081  ( 0.000000  0.009002 -0.000000)
 29:   1106.98   0.000024    0.12  0.000007  (-0.000000  0.000000 -0.002587)
 30:   1120.72   0.001798    9.08  0.000501  (-0.000000  0.022373  0.000000)
 31:   1142.16   0.000000    0.00  0.000000  ( 0.000000  0.000000 -0.000000)
 32:   1147.62   0.000005    0.02  0.000001  (-0.001108  0.000000 -0.000000)
 33:   1195.80   0.000053    0.27  0.000014  (-0.000000  0.000001  0.003735)
 34:   1242.25   0.010248   51.79  0.002574  (-0.000000  0.050738 -0.000000)
 35:   1290.24   0.000048    0.24  0.000012  ( 0.000000  0.003419 -0.000000)
 36:   1400.19   0.000215    1.09  0.000048  (-0.000000 -0.000001 -0.006920)
 37:   1410.47   0.001780    9.00  0.000394  (-0.000000  0.019847 -0.000000)
 38:   1422.39   0.001190    6.02  0.000261  ( 0.000000 -0.000000  0.016160)
 39:   1445.79   0.001028    5.20  0.000222  (-0.000000  0.014898  0.000000)
 40:   1450.48   0.000000    0.00  0.000000  ( 0.000001  0.000000 -0.000000)
 41:   1452.93   0.000018    0.09  0.000004  ( 0.001975  0.000000 -0.000008)
 42:   1453.01   0.000129    0.65  0.000028  (-0.000004 -0.000000 -0.005266)
 43:   1456.76   0.001291    6.53  0.000277  ( 0.000000  0.016632 -0.000003)
 44:   1458.62   0.009275   46.87  0.001984  (-0.000001 -0.000001 -0.044546)
 45:   1462.90   0.000000    0.00  0.000000  (-0.000001  0.000000  0.000000)
 46:   1465.06   0.014999   75.80  0.003195  (-0.056523  0.000000  0.000000)
 47:   1472.21   0.000047    0.24  0.000010  ( 0.000001  0.003172 -0.000000)
 48:   1486.36   0.003133   15.83  0.000658  ( 0.000000  0.000000 -0.025646)
 49:   1534.01   0.000042    0.21  0.000009  (-0.000000  0.002927 -0.000000)
 50:   1546.30   0.000104    0.53  0.000021  (-0.000000 -0.000000 -0.004580)
 51:   1682.98   0.021898  110.66  0.004060  ( 0.000000 -0.063721  0.000000)
 52:   1741.14   0.005202   26.29  0.000932  ( 0.000000  0.000000  0.030535)
 53:   3077.41   0.000656    3.32  0.000067  ( 0.000000  0.008159 -0.000018)
 54:   3077.69   0.000104    0.53  0.000011  ( 0.000000 -0.000045 -0.003253)
 55:   3098.41   0.001230    6.21  0.000124  ( 0.000000  0.011129 -0.000051)
 56:   3098.46   0.000171    0.86  0.000017  (-0.000000  0.000138  0.004145)
 57:   3170.89   0.000153    0.77  0.000015  (-0.003881  0.000000 -0.000000)
 58:   3170.94   0.000000    0.00  0.000000  (-0.000152 -0.000000  0.000000)
 59:   3207.66   0.000016    0.08  0.000002  (-0.000000  0.001260  0.000001)
 60:   3209.15   0.000070    0.35  0.000007  (-0.000000 -0.000000  0.002601)
 61:   3212.55   0.000000    0.00  0.000000  (-0.000089 -0.000000 -0.000000)
 62:   3212.56   0.000002    0.01  0.000000  (-0.000448  0.000000  0.000000)
 63:   3231.12   0.000001    0.01  0.000000  (-0.000000  0.000008  0.000343)
 64:   3231.16   0.000006    0.03  0.000001  ( 0.000000 -0.000749  0.000004)
 65:   3294.26   0.005880   29.72  0.000557  ( 0.000000  0.000000  0.023601)

--------------------------
THERMOCHEMISTRY AT 298.15K
--------------------------

Temperature         ... 298.15 K
Pressure            ... 1.00 atm
Total Mass          ... 125.19 AMU

Throughout the following assumptions are being made:
  (1) The electronic state is orbitally nondegenerate
  (2) There are no thermally accessible electronically excited states
  (3) Hindered rotations indicated by low frequency modes are not
      treated as such but are treated as vibrations and this may
      cause some error
  (4) All equations used are the standard statistical mechanics
      equations for an ideal gas
  (5) All vibrations are strictly harmonic

freq.     101.88  E(vib)   ...       0.46
freq.     106.07  E(vib)   ...       0.45
freq.     141.73  E(vib)   ...       0.41
freq.     166.83  E(vib)   ...       0.39
freq.     180.26  E(vib)   ...       0.37
freq.     182.73  E(vib)   ...       0.37
freq.     275.91  E(vib)   ...       0.28
freq.     278.78  E(vib)   ...       0.28
freq.     289.92  E(vib)   ...       0.27
freq.     303.82  E(vib)   ...       0.26
freq.     324.81  E(vib)   ...       0.24
freq.     541.20  E(vib)   ...       0.12
freq.     577.26  E(vib)   ...       0.11
freq.     624.25  E(vib)   ...       0.09
freq.     647.88  E(vib)   ...       0.09
freq.     692.74  E(vib)   ...       0.07
freq.     742.93  E(vib)   ...       0.06
freq.     849.49  E(vib)   ...       0.04
freq.     864.79  E(vib)   ...       0.04
freq.     975.86  E(vib)   ...       0.03
freq.    1048.57  E(vib)   ...       0.02
freq.    1070.75  E(vib)   ...       0.02
freq.    1085.03  E(vib)   ...       0.02
freq.    1106.98  E(vib)   ...       0.02
freq.    1120.72  E(vib)   ...       0.01
freq.    1142.16  E(vib)   ...       0.01
freq.    1147.62  E(vib)   ...       0.01
freq.    1195.80  E(vib)   ...       0.01
freq.    1242.25  E(vib)   ...       0.01
freq.    1290.24  E(vib)   ...       0.01
freq.    1400.19  E(vib)   ...       0.00
freq.    1410.47  E(vib)   ...       0.00
freq.    1422.39  E(vib)   ...       0.00
freq.    1445.79  E(vib)   ...       0.00
freq.    1450.48  E(vib)   ...       0.00
freq.    1452.93  E(vib)   ...       0.00
freq.    1453.01  E(vib)   ...       0.00
freq.    1456.76  E(vib)   ...       0.00
freq.    1458.62  E(vib)   ...       0.00
freq.    1462.90  E(vib)   ...       0.00
freq.    1465.06  E(vib)   ...       0.00
freq.    1472.21  E(vib)   ...       0.00
freq.    1486.36  E(vib)   ...       0.00
freq.    1534.01  E(vib)   ...       0.00
freq.    1546.30  E(vib)   ...       0.00
freq.    1682.98  E(vib)   ...       0.00
freq.    1741.14  E(vib)   ...       0.00
freq.    3077.41  E(vib)   ...       0.00
freq.    3077.69  E(vib)   ...       0.00
freq.    3098.41  E(vib)   ...       0.00
freq.    3098.46  E(vib)   ...       0.00
freq.    3170.89  E(vib)   ...       0.00
freq.    3170.94  E(vib)   ...       0.00
freq.    3207.66  E(vib)   ...       0.00
freq.    3209.15  E(vib)   ...       0.00
freq.    3212.55  E(vib)   ...       0.00
freq.    3212.56  E(vib)   ...       0.00
freq.    3231.12  E(vib)   ...       0.00
freq.    3231.16  E(vib)   ...       0.00
freq.    3294.26  E(vib)   ...       0.00

------------
INNER ENERGY
------------

The inner energy is: U= E(el) + E(ZPE) + E(vib) + E(rot) + E(trans)
    E(el)   - is the total energy from the electronic structure calculation
              = E(kin-el) + E(nuc-el) + E(el-el) + E(nuc-nuc)
    E(ZPE)  - the the zero temperature vibrational energy from the frequency calculation
    E(vib)  - the the finite temperature correction to E(ZPE) due to population
              of excited vibrational states
    E(rot)  - is the rotational thermal energy
    E(trans)- is the translational thermal energy

Summary of contributions to the inner energy U:
Electronic energy                ...   -383.50912161 Eh
Zero point energy                ...      0.19809379 Eh     124.31 kcal/mol
Thermal vibrational correction   ...      0.00738315 Eh       4.63 kcal/mol
Thermal rotational correction    ...      0.00141627 Eh       0.89 kcal/mol
Thermal translational correction ...      0.00141627 Eh       0.89 kcal/mol
-----------------------------------------------------------------------
Total thermal energy                   -383.30081212 Eh

Summary of corrections to the electronic energy:
(perhaps to be used in another calculation)
Total thermal correction                  0.01021570 Eh       6.41 kcal/mol
Non-thermal (ZPE) correction              0.19809379 Eh     124.31 kcal/mol
-----------------------------------------------------------------------
Total correction                          0.20830949 Eh     130.72 kcal/mol

--------
ENTHALPY
--------

The enthalpy is H = U + kB*T
                kB is Boltzmann's constant
Total free energy                 ...   -383.30081212 Eh
Thermal Enthalpy correction       ...      0.00094421 Eh       0.59 kcal/mol
-----------------------------------------------------------------------
Total Enthalpy                    ...   -383.29986791 Eh

Note: Rotational entropy computed according to Herzberg
Infrared and Raman Spectra, Chapter V,1, Van Nostrand Reinhold, 1945
Point Group:  C2v, Symmetry Number:   2
Rotational constants in cm-1:     0.081296     0.050365     0.031857

Vibrational entropy computed according to the QRRHO of S. Grimme
Chem.Eur.J. 2012 18 9955

-------
ENTROPY
-------

The entropy contributions are T*S = T*(S(el)+S(vib)+S(rot)+S(trans))
     S(el)   - electronic entropy
     S(vib)  - vibrational entropy
     S(rot)  - rotational entropy
     S(trans)- translational entropy
The entropies will be listed as multiplied by the temperature to get
units of energy

Electronic entropy                ...      0.00000000 Eh      0.00 kcal/mol
Vibrational entropy               ...      0.01279361 Eh      8.03 kcal/mol
Rotational entropy                ...      0.01307903 Eh      8.21 kcal/mol
Translational entropy             ...      0.01918948 Eh     12.04 kcal/mol
-----------------------------------------------------------------------
Final entropy term                ...      0.04506212 Eh     28.28 kcal/mol

In case the symmetry of your molecule has not been determined correctly
or in case you have a reason to use a different symmetry number we print
out the resulting rotational entropy values for sn=1,12 :
 --------------------------------------------------------
|  sn= 1 | S(rot)=       0.01373348 Eh      8.62 kcal/mol|
|  sn= 2 | S(rot)=       0.01307903 Eh      8.21 kcal/mol|
|  sn= 3 | S(rot)=       0.01269620 Eh      7.97 kcal/mol|
|  sn= 4 | S(rot)=       0.01242457 Eh      7.80 kcal/mol|
|  sn= 5 | S(rot)=       0.01221388 Eh      7.66 kcal/mol|
|  sn= 6 | S(rot)=       0.01204174 Eh      7.56 kcal/mol|
|  sn= 7 | S(rot)=       0.01189619 Eh      7.46 kcal/mol|
|  sn= 8 | S(rot)=       0.01177012 Eh      7.39 kcal/mol|

                             ****ORCA TERMINATED NORMALLY****
TOTAL RUN TIME: 0 days 0 hours 17 minutes 32 seconds 701 msec
