                         Program Version 5.0.4 -  RELEASE  -
|  1> ! SP wB97X D4 def2-SVP def2/J defgrid2
|  2> %maxcore 3000
|  3> %PAL NPROCS 4 END
|  4> * xyz 0 1
|  5> C -0.0 0.6809 -0.6233
|  6> C -0.0 -0.6809 -0.6233
|  7> N -0.0 1.0598 0.7177
|  8> N -0.0 -1.0598 0.7177
|  9> C -0.0 0.0 1.5671
| 10> C 0.0 2.4411 1.1539
| 11> C 0.0 -2.4411 1.1539
| 12> H -0.8935 2.9697 0.7878
| 13> H -0.8935 -2.9697 0.7878
| 14> H 0.8935 -2.9697 0.7878
| 15> H 0.8935 2.9697 0.7878
| 16> H -0.0 2.4538 2.2504
| 17> H -0.0 -2.4538 2.2504
| 18> C -0.0 1.6647 -1.7446
| 19> C -0.0 -1.6647 -1.7446
| 20> H 0.8887 2.3155 -1.7126
| 21> H 0.8887 -2.3155 -1.7126
| 22> H -0.8887 -2.3155 -1.7126
| 23> H -0.8887 2.3155 -1.7126
| 24> H 0.0 1.1398 -2.71
| 25> H -0.0 -1.1398 -2.71
| 26> **                         ****END OF INPUT****

CARTESIAN COORDINATES (ANGSTROEM)
---------------------------------
  C     -0.000000    0.680900   -0.623300
  C     -0.000000   -0.680900   -0.623300
  N     -0.000000    1.059800    0.717700
  N     -0.000000   -1.059800    0.717700
  C     -0.000000    0.000000    1.567100
  C      0.000000    2.441100    1.153900
  C      0.000000   -2.441100    1.153900
  H     -0.893500    2.969700    0.787800
  H     -0.893500   -2.969700    0.787800
  H      0.893500   -2.969700    0.787800
  H      0.893500    2.969700    0.787800
  H     -0.000000    2.453800    2.250400
  H     -0.000000   -2.453800    2.250400
  C     -0.000000    1.664700   -1.744600
  C     -0.000000   -1.664700   -1.744600
  H      0.888700    2.315500   -1.712600
  H      0.888700   -2.315500   -1.712600
  H     -0.888700   -2.315500   -1.712600
  H     -0.888700    2.315500   -1.712600
  H      0.000000    1.139800   -2.710000
  H     -0.000000   -1.139800   -2.710000

 Total Charge           Charge          ....    0
 Multiplicity           Mult            ....    1
 Number of Electrons    NEL             ....   68
 Basis Dimension        Dim             ....  186

ORBITAL ENERGIES
----------------

  NO   OCC          E(Eh)            E(eV)
   0   2.0000     -14.434570      -392.7846
   1   2.0000     -14.434569      -392.7846
   2   2.0000     -10.300142      -280.2811
   3   2.0000     -10.300115      -280.2804
   4   2.0000     -10.288910      -279.9755
   5   2.0000     -10.288391      -279.9614
   6   2.0000     -10.283137      -279.8184
   7   2.0000     -10.283084      -279.8169
   8   2.0000     -10.256464      -279.0926
   9   2.0000      -1.134657       -30.8756
  10   2.0000      -1.026569       -27.9344
  11   2.0000      -0.913691       -24.8628
  12   2.0000      -0.868710       -23.6388
  13   2.0000      -0.856831       -23.3156
  14   2.0000      -0.783732       -21.3264
  15   2.0000      -0.777071       -21.1452
  16   2.0000      -0.679279       -18.4841
  17   2.0000      -0.672559       -18.3013
  18   2.0000      -0.611383       -16.6366
  19   2.0000      -0.591925       -16.1071
  20   2.0000      -0.554258       -15.0821
  21   2.0000      -0.544563       -14.8183
  22   2.0000      -0.537637       -14.6298
  23   2.0000      -0.525670       -14.3042
  24   2.0000      -0.524940       -14.2843
  25   2.0000      -0.515479       -14.0269
  26   2.0000      -0.507949       -13.8220
  27   2.0000      -0.498447       -13.5634
  28   2.0000      -0.475474       -12.9383
  29   2.0000      -0.473149       -12.8750
  30   2.0000      -0.468328       -12.7439
  31   2.0000      -0.358023        -9.7423
  32   2.0000      -0.298238        -8.1155
  33   2.0000      -0.295915        -8.0523
  34   0.0000       0.133624         3.6361
  35   0.0000       0.135890         3.6978
  36   0.0000       0.151078         4.1110
  37   0.0000       0.152713         4.1555
  38   0.0000       0.177931         4.8417

MULLIKEN ATOMIC CHARGES
-----------------------
   0 C :   -0.105583
   1 C :   -0.105579
   2 N :   -0.248319
   3 N :   -0.248320
   4 C :   -0.135481
   5 C :    0.113905
   6 C :    0.113905
   7 H :    0.031779
   8 H :    0.031779
   9 H :    0.031779
  10 H :    0.031779
  11 H :    0.060153
  12 H :    0.060154
  13 C :    0.084908
  14 C :    0.084905
  15 H :    0.038763
  16 H :    0.038763
  17 H :    0.038763
  18 H :    0.038763
  19 H :    0.021592
  20 H :    0.021594
Sum of atomic charges:    0.0000000

LOEWDIN ATOMIC CHARGES
----------------------
   0 C :   -0.049633
   1 C :   -0.049633
   2 N :    0.012777
   3 N :    0.012777
   4 C :   -0.256673
   5 C :    0.030533
   6 C :    0.030533
   7 H :    0.022330
   8 H :    0.022330
   9 H :    0.022330
  10 H :    0.022330
  11 H :    0.039792
  12 H :    0.039793
  13 C :   -0.057523
  14 C :   -0.057523
  15 H :    0.035555
  16 H :    0.035555
  17 H :    0.035555
  18 H :    0.035555
  19 H :    0.036621
  20 H :    0.036621

  Mayer bond orders larger than 0.100000
B(  0-C ,  1-C ) :   1.6755 B(  0-C ,  2-N ) :   1.1200 B(  0-C , 13-C ) :   1.0892
B(  1-C ,  3-N ) :   1.1200 B(  1-C , 14-C ) :   1.0892 B(  2-N ,  4-C ) :   1.2245
B(  2-N ,  5-C ) :   0.9701 B(  3-N ,  4-C ) :   1.2245 B(  3-N ,  6-C ) :   0.9701
B(  5-C ,  7-H ) :   0.9764 B(  5-C , 10-H ) :   0.9764 B(  5-C , 11-H ) :   0.9702
B(  6-C ,  8-H ) :   0.9764 B(  6-C ,  9-H ) :   0.9764 B(  6-C , 12-H ) :   0.9702
B( 13-C , 15-H ) :   0.9519 B( 13-C , 18-H ) :   0.9519 B( 13-C , 19-H ) :   0.9473
B( 14-C , 16-H ) :   0.9519 B( 14-C , 17-H ) :   0.9519 B( 14-C , 20-H ) :   0.9473

Dispersion correction           -0.002983145
FINAL SINGLE POINT ENERGY      -383.067254661286

DIPOLE MOMENT
-------------
                                X             Y             Z
Electronic contribution:     -0.00000      -0.00000       3.58067
Nuclear contribution   :      0.00000       0.00000      -4.78867
                        -----------------------------------------
Total Dipole Moment    :     -0.00000      -0.00000      -1.20800
                        -----------------------------------------
Magnitude (a.u.)       :      1.20800
Magnitude (Debye)      :      3.07049

Rotational constants in cm-1:     0.082678     0.050982     0.032310
Rotational constants in MHz :  2478.629628  1528.414499   968.634831

                             ****ORCA TERMINATED NORMALLY****
TOTAL RUN TIME: 0 days 0 hours 0 minutes 48 seconds 740 msec
