                         Program Version 5.0.3 -  RELEASE  -
|  1> # ORCAForces - ../2023_02/pKa_prediction/Yates_carbene_xyzs/Water/MeMe_water.inp
|  2> # Basic Mode
|  3> #
|  4> ! Opt FREQ wB97X D4 Def2-SVP SlowConv TightSCF DEFGRID2 Def2/J RIJCOSX CPCM(Water)
|  5>
|  6> %maxcore 4500
|  7>
|  8> %PAL NPROCS 4 END
|  9>
| 10> %geom
| 11> Maxiter 150
| 12> END
| 13>
| 14> * xyzfile 0 1 MeMe.xyz
| 15>
| 16>                          ****END OF INPUT****
 Total Charge           Charge          ....    0
 Multiplicity           Mult            ....    1
 Number of Electrons    NEL             ....   68
Dispersion correction           -0.002976000
FINAL SINGLE POINT ENERGY      -383.079826420732
Dispersion correction            ... Starting D4
Dispersion correction           -0.002979369
FINAL SINGLE POINT ENERGY      -383.080689437873
Dispersion correction            ... Starting D4
Dispersion correction           -0.002981002
FINAL SINGLE POINT ENERGY      -383.080772444958
Dispersion correction            ... Starting D4
Dispersion correction           -0.002981590
FINAL SINGLE POINT ENERGY      -383.080797786447
Dispersion correction            ... Starting D4
                    ***********************HURRAY********************

CARTESIAN COORDINATES (ANGSTROEM)
---------------------------------
  C     -0.000001    0.680876   -0.623257
  C     -0.000001   -0.680876   -0.623257
  N     -0.000000    1.059845    0.717654
  N     -0.000000   -1.059844    0.717654
  C     -0.000000    0.000000    1.567101
  C      0.000000    2.441119    1.153866
  C      0.000000   -2.441119    1.153866
  H     -0.893547    2.969664    0.787753
  H     -0.893547   -2.969664    0.787752
  H      0.893548   -2.969662    0.787753
  H      0.893548    2.969663    0.787754
  H     -0.000000    2.453752    2.250396
  H     -0.000000   -2.453753    2.250395
  C     -0.000000    1.664688   -1.744642
  C     -0.000000   -1.664688   -1.744641
  H      0.888738    2.315484   -1.712644
  H      0.888737   -2.315484   -1.712643
  H     -0.888737   -2.315485   -1.712643
  H     -0.888737    2.315485   -1.712645
  H      0.000000    1.139847   -2.709956
  H     -0.000000   -1.139847   -2.709956

 Multiplicity           Mult            ....    1
 Number of Electrons    NEL             ....   68
 Basis Dimension        Dim             ....  186

ORBITAL ENERGIES
----------------

  NO   OCC          E(Eh)            E(eV)
   0   2.0000     -14.442943      -393.0125
   1   2.0000     -14.442941      -393.0124
   2   2.0000     -10.298489      -280.2361
   3   2.0000     -10.298461      -280.2354
   4   2.0000     -10.291485      -280.0455
   5   2.0000     -10.290965      -280.0314
   6   2.0000     -10.273385      -279.5530
   7   2.0000     -10.273331      -279.5515
   8   2.0000     -10.271352      -279.4977
   9   2.0000      -1.142187       -31.0805
  10   2.0000      -1.031960       -28.0811
  11   2.0000      -0.913615       -24.8607
  12   2.0000      -0.869237       -23.6531
  13   2.0000      -0.851062       -23.1586
  14   2.0000      -0.783280       -21.3141
  15   2.0000      -0.777196       -21.1486
  16   2.0000      -0.680799       -18.5255
  17   2.0000      -0.675616       -18.3844
  18   2.0000      -0.610350       -16.6085
  19   2.0000      -0.594757       -16.1842
  20   2.0000      -0.552133       -15.0243
  21   2.0000      -0.544569       -14.8185
  22   2.0000      -0.531412       -14.4604
  23   2.0000      -0.524076       -14.2608
  24   2.0000      -0.519277       -14.1303
  25   2.0000      -0.507169       -13.8008
  26   2.0000      -0.505765       -13.7626
  27   2.0000      -0.489140       -13.3102
  28   2.0000      -0.473700       -12.8900
  29   2.0000      -0.472819       -12.8661
  30   2.0000      -0.468868       -12.7586
  31   2.0000      -0.362249        -9.8573
  32   2.0000      -0.320533        -8.7222
  33   2.0000      -0.303658        -8.2630
  34   0.0000       0.136056         3.7023
  35   0.0000       0.136575         3.7164
  36   0.0000       0.146470         3.9856
  37   0.0000       0.161138         4.3848
  38   0.0000       0.191528         5.2117

MULLIKEN ATOMIC CHARGES
-----------------------
   0 C :   -0.117022
   1 C :   -0.117015
   2 N :   -0.240803
   3 N :   -0.240804
   4 C :   -0.234636
   5 C :    0.096362
   6 C :    0.096361
   7 H :    0.054771
   8 H :    0.054771
   9 H :    0.054771
  10 H :    0.054771
  11 H :    0.050550
  12 H :    0.050550
  13 C :    0.074775
  14 C :    0.074776
  15 H :    0.052075
  16 H :    0.052075
  17 H :    0.052075
  18 H :    0.052075
  19 H :    0.039761
  20 H :    0.039761
Sum of atomic charges:   -0.0000000

LOEWDIN ATOMIC CHARGES
----------------------
   0 C :   -0.048229
   1 C :   -0.048229
   2 N :    0.017363
   3 N :    0.017363
   4 C :   -0.331460
   5 C :    0.028374
   6 C :    0.028373
   7 H :    0.032405
   8 H :    0.032405
   9 H :    0.032405
  10 H :    0.032405
  11 H :    0.034391
  12 H :    0.034391
  13 C :   -0.059038
  14 C :   -0.059038
  15 H :    0.042106
  16 H :    0.042105
  17 H :    0.042105
  18 H :    0.042106
  19 H :    0.043848
  20 H :    0.043848

  Mayer bond orders larger than 0.100000
B(  0-C ,  1-C ) :   1.6629 B(  0-C ,  2-N ) :   1.1265 B(  0-C , 13-C ) :   1.0905
B(  1-C ,  3-N ) :   1.1265 B(  1-C , 14-C ) :   1.0905 B(  2-N ,  4-C ) :   1.2460
B(  2-N ,  5-C ) :   0.9586 B(  3-N ,  4-C ) :   1.2460 B(  3-N ,  6-C ) :   0.9586
B(  5-C ,  7-H ) :   0.9759 B(  5-C , 10-H ) :   0.9759 B(  5-C , 11-H ) :   0.9706
B(  6-C ,  8-H ) :   0.9759 B(  6-C ,  9-H ) :   0.9759 B(  6-C , 12-H ) :   0.9706
B( 13-C , 15-H ) :   0.9505 B( 13-C , 18-H ) :   0.9505 B( 13-C , 19-H ) :   0.9463
B( 14-C , 16-H ) :   0.9505 B( 14-C , 17-H ) :   0.9505 B( 14-C , 20-H ) :   0.9463

Dispersion correction           -0.002981513
FINAL SINGLE POINT ENERGY      -383.080799682829

DIPOLE MOMENT
-------------
                                X             Y             Z
Electronic contribution:     -0.00000       0.00000       3.05422
Nuclear contribution   :      0.00000      -0.00000      -4.78872
                        -----------------------------------------
Total Dipole Moment    :      0.00000       0.00000      -1.73450
                        -----------------------------------------
Magnitude (a.u.)       :      1.73450
Magnitude (Debye)      :      4.40875

Dispersion correction in the Hessian             ... Starting D4

VIBRATIONAL FREQUENCIES
-----------------------

Scaling factor for frequencies =  1.000000000  (already applied!)

   0:         0.00 cm**-1
   1:         0.00 cm**-1
   2:         0.00 cm**-1
   3:         0.00 cm**-1
   4:         0.00 cm**-1
   5:         0.00 cm**-1
   6:       116.74 cm**-1
   7:       120.92 cm**-1
   8:       141.70 cm**-1
   9:       166.43 cm**-1
  10:       178.00 cm**-1
  11:       179.03 cm**-1
  12:       277.15 cm**-1
  13:       278.49 cm**-1
  14:       294.76 cm**-1
  15:       298.00 cm**-1
  16:       326.15 cm**-1
  17:       552.51 cm**-1
  18:       582.14 cm**-1
  19:       629.71 cm**-1
  20:       643.42 cm**-1
  21:       682.55 cm**-1
  22:       734.63 cm**-1
  23:       873.60 cm**-1
  24:       968.83 cm**-1
  25:      1046.84 cm**-1
  26:      1066.67 cm**-1
  27:      1078.34 cm**-1
  28:      1085.91 cm**-1
  29:      1113.57 cm**-1
  30:      1143.55 cm**-1
  31:      1144.39 cm**-1
  32:      1183.39 cm**-1
  33:      1256.43 cm**-1
  34:      1389.74 cm**-1
  35:      1397.77 cm**-1
  36:      1413.65 cm**-1
  37:      1419.72 cm**-1
  38:      1428.95 cm**-1
  39:      1438.00 cm**-1
  40:      1440.28 cm**-1
  41:      1442.44 cm**-1
  42:      1450.36 cm**-1
  43:      1450.54 cm**-1
  44:      1451.03 cm**-1
  45:      1452.56 cm**-1
  46:      1478.71 cm**-1
  47:      1487.89 cm**-1
  48:      1491.43 cm**-1
  49:      1499.16 cm**-1
  50:      1762.08 cm**-1
  51:      3061.79 cm**-1
  52:      3062.94 cm**-1
  53:      3070.11 cm**-1
  54:      3071.31 cm**-1
  55:      3148.59 cm**-1
  56:      3148.79 cm**-1
  57:      3164.29 cm**-1
  58:      3164.33 cm**-1
  59:      3184.76 cm**-1
  60:      3186.08 cm**-1
  61:      3211.37 cm**-1
  62:      3211.58 cm**-1

IR SPECTRUM
-----------

 Mode   freq       eps      Int      T**2         TX        TY        TZ
       cm**-1   L/(mol*cm) km/mol    a.u.
----------------------------------------------------------------------------
  6:    116.74   0.000273    1.38  0.000730  (-0.027013 -0.000000  0.000000)
  7:    120.92   0.000000    0.00  0.000000  ( 0.000003 -0.000000 -0.000000)
  8:    141.70   0.000000    0.00  0.000000  ( 0.000000 -0.000000 -0.000000)
  9:    166.43   0.000877    4.43  0.001644  ( 0.040550 -0.000000  0.000000)
 10:    178.00   0.003347   16.91  0.005867  ( 0.076599  0.000000  0.000000)
 11:    179.03   0.000000    0.00  0.000000  (-0.000023 -0.000000  0.000000)
 12:    277.15   0.000065    0.33  0.000074  (-0.000000  0.000001 -0.008586)
 13:    278.49   0.000761    3.85  0.000853  ( 0.000000  0.029204  0.000000)
 14:    294.76   0.000147    0.74  0.000156  (-0.012481  0.000000  0.000002)
 15:    298.00   0.001121    5.67  0.001174  (-0.000000 -0.000000 -0.034267)
 16:    326.15   0.000000    0.00  0.000000  ( 0.000000 -0.000000  0.000000)
 17:    552.51   0.000351    1.77  0.000198  ( 0.000000  0.014079 -0.000000)
 18:    582.14   0.001272    6.43  0.000682  ( 0.000000 -0.026111 -0.000000)
 19:    629.71   0.000478    2.42  0.000237  ( 0.000000 -0.000000  0.015395)
 20:    643.42   0.001135    5.74  0.000551  (-0.023466  0.000000  0.000000)
 21:    682.55   0.000000    0.00  0.000000  (-0.000000  0.000000  0.000000)
 22:    734.63   0.002157   10.90  0.000916  (-0.000000  0.000000  0.030271)
 23:    873.60   0.006128   30.97  0.002189  ( 0.000000 -0.046785  0.000000)
 24:    968.83   0.000138    0.70  0.000044  (-0.000000 -0.000000  0.006669)
 25:   1046.84   0.001031    5.21  0.000307  (-0.017532 -0.000000 -0.000000)
 26:   1066.67   0.000000    0.00  0.000000  ( 0.000000 -0.000000  0.000000)
 27:   1078.34   0.000165    0.83  0.000048  ( 0.000000 -0.006911  0.000000)
 28:   1085.91   0.000012    0.06  0.000004  (-0.000000 -0.000000 -0.001884)
 29:   1113.57   0.000000    0.00  0.000000  (-0.000000  0.000053  0.000000)
 30:   1143.55   0.000002    0.01  0.000001  ( 0.000715 -0.000000  0.000000)
 31:   1144.39   0.000000    0.00  0.000000  ( 0.000000 -0.000000  0.000000)
 32:   1183.39   0.001002    5.06  0.000264  ( 0.000000 -0.000000  0.016253)
 33:   1256.43   0.002345   11.85  0.000582  ( 0.000000 -0.024134 -0.000000)
 34:   1389.74   0.000024    0.12  0.000005  (-0.000000 -0.002307  0.000000)
 35:   1397.77   0.000042    0.21  0.000009  (-0.000000  0.000000  0.003056)
 36:   1413.65   0.000145    0.73  0.000032  ( 0.000000 -0.000000  0.005662)
 37:   1419.72   0.008976   45.36  0.001973  ( 0.000000 -0.044418 -0.000000)
 38:   1428.95   0.003687   18.63  0.000805  ( 0.000000  0.000000 -0.028375)
 39:   1438.00   0.002658   13.43  0.000577  ( 0.024015  0.000000 -0.000000)
 40:   1440.28   0.000000    0.00  0.000000  (-0.000001  0.000002  0.000000)
 41:   1442.44   0.009827   49.66  0.002126  (-0.000000  0.046108  0.000000)
 42:   1450.36   0.005078   25.66  0.001093  (-0.000001 -0.033054 -0.000001)
 43:   1450.54   0.000000    0.00  0.000000  ( 0.000002 -0.000015 -0.000000)
 44:   1451.03   0.008508   43.00  0.001830  (-0.042777  0.000001  0.000002)
 45:   1452.56   0.006635   33.53  0.001426  ( 0.000002 -0.000001  0.037756)
 46:   1478.71   0.004801   24.26  0.001013  (-0.000000 -0.000000 -0.031831)
 47:   1487.89   0.001755    8.87  0.000368  (-0.000000  0.000001 -0.019185)
 48:   1491.43   0.001638    8.28  0.000343  (-0.000000 -0.018515 -0.000000)
 49:   1499.16   0.015918   80.45  0.003314  ( 0.000000  0.057563  0.000000)
 50:   1762.08   0.001248    6.30  0.000221  ( 0.000000  0.000000 -0.014864)
 51:   3061.79   0.009536   48.19  0.000972  (-0.000000  0.031176  0.000003)
 52:   3062.94   0.004209   21.27  0.000429  (-0.000000  0.000004 -0.020708)
 53:   3070.11   0.020389  103.04  0.002072  ( 0.000000 -0.045525 -0.000000)
 54:   3071.31   0.000044    0.22  0.000004  (-0.000000 -0.000007  0.002118)
 55:   3148.59   0.005106   25.80  0.000506  ( 0.022496 -0.000000  0.000000)
 56:   3148.79   0.000000    0.00  0.000000  ( 0.000026 -0.000000 -0.000000)
 57:   3164.29   0.007520   38.01  0.000742  ( 0.027234 -0.000000  0.000000)
 58:   3164.33   0.000000    0.00  0.000000  ( 0.000141 -0.000000  0.000000)
 59:   3184.76   0.001874    9.47  0.000184  ( 0.000000  0.013551 -0.000001)
 60:   3186.08   0.002217   11.20  0.000217  (-0.000000  0.000001  0.014736)
 61:   3211.37   0.001784    9.02  0.000173  (-0.000000  0.000001  0.013168)
 62:   3211.58   0.000099    0.50  0.000010  ( 0.000000 -0.003100  0.000006)

--------------------------
THERMOCHEMISTRY AT 298.15K
--------------------------

Temperature         ... 298.15 K
Pressure            ... 1.00 atm
Total Mass          ... 124.19 AMU

Throughout the following assumptions are being made:
  (1) The electronic state is orbitally nondegenerate
  (2) There are no thermally accessible electronically excited states
  (3) Hindered rotations indicated by low frequency modes are not
      treated as such but are treated as vibrations and this may
      cause some error
  (4) All equations used are the standard statistical mechanics
      equations for an ideal gas
  (5) All vibrations are strictly harmonic

freq.     116.74  E(vib)   ...       0.44
freq.     120.92  E(vib)   ...       0.44
freq.     141.70  E(vib)   ...       0.41
freq.     166.43  E(vib)   ...       0.39
freq.     178.00  E(vib)   ...       0.37
freq.     179.03  E(vib)   ...       0.37
freq.     277.15  E(vib)   ...       0.28
freq.     278.49  E(vib)   ...       0.28
freq.     294.76  E(vib)   ...       0.27
freq.     298.00  E(vib)   ...       0.27
freq.     326.15  E(vib)   ...       0.24
freq.     552.51  E(vib)   ...       0.12
freq.     582.14  E(vib)   ...       0.11
freq.     629.71  E(vib)   ...       0.09
freq.     643.42  E(vib)   ...       0.09
freq.     682.55  E(vib)   ...       0.08
freq.     734.63  E(vib)   ...       0.06
freq.     873.60  E(vib)   ...       0.04
freq.     968.83  E(vib)   ...       0.03
freq.    1046.84  E(vib)   ...       0.02
freq.    1066.67  E(vib)   ...       0.02
freq.    1078.34  E(vib)   ...       0.02
freq.    1085.91  E(vib)   ...       0.02
freq.    1113.57  E(vib)   ...       0.01
freq.    1143.55  E(vib)   ...       0.01
freq.    1144.39  E(vib)   ...       0.01
freq.    1183.39  E(vib)   ...       0.01
freq.    1256.43  E(vib)   ...       0.01
freq.    1389.74  E(vib)   ...       0.00
freq.    1397.77  E(vib)   ...       0.00
freq.    1413.65  E(vib)   ...       0.00
freq.    1419.72  E(vib)   ...       0.00
freq.    1428.95  E(vib)   ...       0.00
freq.    1438.00  E(vib)   ...       0.00
freq.    1440.28  E(vib)   ...       0.00
freq.    1442.44  E(vib)   ...       0.00
freq.    1450.36  E(vib)   ...       0.00
freq.    1450.54  E(vib)   ...       0.00
freq.    1451.03  E(vib)   ...       0.00
freq.    1452.56  E(vib)   ...       0.00
freq.    1478.71  E(vib)   ...       0.00
freq.    1487.89  E(vib)   ...       0.00
freq.    1491.43  E(vib)   ...       0.00
freq.    1499.16  E(vib)   ...       0.00
freq.    1762.08  E(vib)   ...       0.00
freq.    3061.79  E(vib)   ...       0.00
freq.    3062.94  E(vib)   ...       0.00
freq.    3070.11  E(vib)   ...       0.00
freq.    3071.31  E(vib)   ...       0.00
freq.    3148.59  E(vib)   ...       0.00
freq.    3148.79  E(vib)   ...       0.00
freq.    3164.29  E(vib)   ...       0.00
freq.    3164.33  E(vib)   ...       0.00
freq.    3184.76  E(vib)   ...       0.00
freq.    3186.08  E(vib)   ...       0.00
freq.    3211.37  E(vib)   ...       0.00
freq.    3211.58  E(vib)   ...       0.00

------------
INNER ENERGY
------------

The inner energy is: U= E(el) + E(ZPE) + E(vib) + E(rot) + E(trans)
    E(el)   - is the total energy from the electronic structure calculation
              = E(kin-el) + E(nuc-el) + E(el-el) + E(nuc-nuc)
    E(ZPE)  - the the zero temperature vibrational energy from the frequency calculation
    E(vib)  - the the finite temperature correction to E(ZPE) due to population
              of excited vibrational states
    E(rot)  - is the rotational thermal energy
    E(trans)- is the translational thermal energy

Summary of contributions to the inner energy U:
Electronic energy                ...   -383.08079968 Eh
Zero point energy                ...      0.18394857 Eh     115.43 kcal/mol
Thermal vibrational correction   ...      0.00726834 Eh       4.56 kcal/mol
Thermal rotational correction    ...      0.00141627 Eh       0.89 kcal/mol
Thermal translational correction ...      0.00141627 Eh       0.89 kcal/mol
-----------------------------------------------------------------------
Total thermal energy                   -382.88675023 Eh

Summary of corrections to the electronic energy:
(perhaps to be used in another calculation)
Total thermal correction                  0.01010088 Eh       6.34 kcal/mol
Non-thermal (ZPE) correction              0.18394857 Eh     115.43 kcal/mol
-----------------------------------------------------------------------
Total correction                          0.19404945 Eh     121.77 kcal/mol

--------
ENTHALPY
--------

The enthalpy is H = U + kB*T
                kB is Boltzmann's constant
Total free energy                 ...   -382.88675023 Eh
Thermal Enthalpy correction       ...      0.00094421 Eh       0.59 kcal/mol
-----------------------------------------------------------------------
Total Enthalpy                    ...   -382.88580602 Eh

Note: Rotational entropy computed according to Herzberg
Infrared and Raman Spectra, Chapter V,1, Van Nostrand Reinhold, 1945
Point Group:  C2v, Symmetry Number:   2
Rotational constants in cm-1:     0.082679     0.050982     0.032310

Vibrational entropy computed according to the QRRHO of S. Grimme
Chem.Eur.J. 2012 18 9955

-------
ENTROPY
-------

The entropy contributions are T*S = T*(S(el)+S(vib)+S(rot)+S(trans))
     S(el)   - electronic entropy
     S(vib)  - vibrational entropy
     S(rot)  - rotational entropy
     S(trans)- translational entropy
The entropies will be listed as multiplied by the temperature to get
units of energy

Electronic entropy                ...      0.00000000 Eh      0.00 kcal/mol
Vibrational entropy               ...      0.01259517 Eh      7.90 kcal/mol
Rotational entropy                ...      0.01305864 Eh      8.19 kcal/mol
Translational entropy             ...      0.01917803 Eh     12.03 kcal/mol
-----------------------------------------------------------------------
Final entropy term                ...      0.04483185 Eh     28.13 kcal/mol

In case the symmetry of your molecule has not been determined correctly
or in case you have a reason to use a different symmetry number we print
out the resulting rotational entropy values for sn=1,12 :
 --------------------------------------------------------
|  sn= 1 | S(rot)=       0.01371310 Eh      8.61 kcal/mol|
|  sn= 2 | S(rot)=       0.01305864 Eh      8.19 kcal/mol|
|  sn= 3 | S(rot)=       0.01267581 Eh      7.95 kcal/mol|
|  sn= 4 | S(rot)=       0.01240419 Eh      7.78 kcal/mol|
|  sn= 5 | S(rot)=       0.01219350 Eh      7.65 kcal/mol|
|  sn= 6 | S(rot)=       0.01202135 Eh      7.54 kcal/mol|
|  sn= 7 | S(rot)=       0.01187581 Eh      7.45 kcal/mol|
|  sn= 8 | S(rot)=       0.01174973 Eh      7.37 kcal/mol|
|  sn= 9 | S(rot)=       0.01163852 Eh      7.30 kcal/mol|
|  sn=10 | S(rot)=       0.01153904 Eh      7.24 kcal/mol|
|  sn=11 | S(rot)=       0.01144905 Eh      7.18 kcal/mol|

                             ****ORCA TERMINATED NORMALLY****
TOTAL RUN TIME: 0 days 0 hours 8 minutes 12 seconds 672 msec
