                         Program Version 5.0.4 -  RELEASE  -
|  1> ! SP wB97X D4 def2-SVP def2/J defgrid2
|  2> %maxcore 3000
|  3> %PAL NPROCS 4 END
|  4> * xyz 1 1
|  5> N 0.0 1.0865 1.0564
|  6> N -0.0 -1.0865 1.0564
|  7> C 0.0 0.6824 -0.2617
|  8> C -0.0 -0.6824 -0.2617
|  9> C 0.0 -0.0 1.8246
| 10> Cl 0.0 1.7634 -1.559
| 11> Cl -0.0 -1.7634 -1.559
| 12> C -0.0 2.4719 1.5197
| 13> C 0.0 -2.4719 1.5197
| 14> H -0.0 2.4676 2.6153
| 15> H -0.0 -2.4676 2.6153
| 16> H -0.9 2.9763 1.146
| 17> H -0.9 -2.9763 1.146
| 18> H 0.9 -2.9763 1.146
| 19> H 0.9 2.9763 1.146
| 20> H -0.0 -0.0 2.9153
| 21> **                         ****END OF INPUT****

CARTESIAN COORDINATES (ANGSTROEM)
---------------------------------
  N      0.000000    1.086500    1.056400
  N     -0.000000   -1.086500    1.056400
  C      0.000000    0.682400   -0.261700
  C     -0.000000   -0.682400   -0.261700
  C      0.000000   -0.000000    1.824600
  Cl     0.000000    1.763400   -1.559000
  Cl    -0.000000   -1.763400   -1.559000
  C     -0.000000    2.471900    1.519700
  C      0.000000   -2.471900    1.519700
  H     -0.000000    2.467600    2.615300
  H     -0.000000   -2.467600    2.615300
  H     -0.900000    2.976300    1.146000
  H     -0.900000   -2.976300    1.146000
  H      0.900000   -2.976300    1.146000
  H      0.900000    2.976300    1.146000
  H     -0.000000   -0.000000    2.915300

 Total Charge           Charge          ....    1
 Multiplicity           Mult            ....    1
 Number of Electrons    NEL             ....   84
 Basis Dimension        Dim             ....  169

ORBITAL ENERGIES
----------------

  NO   OCC          E(Eh)            E(eV)
   0   2.0000    -101.659333     -2766.2911
   1   2.0000    -101.659319     -2766.2907
   2   2.0000     -14.688656      -399.6987
   3   2.0000     -14.688631      -399.6980
   4   2.0000     -10.559377      -287.3353
   5   2.0000     -10.547111      -287.0015
   6   2.0000     -10.546552      -286.9863
   7   2.0000     -10.491956      -285.5006
   8   2.0000     -10.491934      -285.5000
   9   2.0000      -9.731789      -264.8154
  10   2.0000      -9.731769      -264.8149
  11   2.0000      -7.501401      -204.1235
  12   2.0000      -7.501396      -204.1234
  13   2.0000      -7.489210      -203.7918
  14   2.0000      -7.489205      -203.7916
  15   2.0000      -7.489119      -203.7893
  16   2.0000      -7.489108      -203.7890
  17   2.0000      -1.397552       -38.0293
  18   2.0000      -1.275567       -34.7099
  19   2.0000      -1.199181       -32.6314
  20   2.0000      -1.159807       -31.5599
  21   2.0000      -1.095625       -29.8135
  22   2.0000      -1.046758       -28.4837
  23   2.0000      -1.001763       -27.2594
  24   2.0000      -0.925160       -25.1749
  25   2.0000      -0.914015       -24.8716
  26   2.0000      -0.838416       -22.8145
  27   2.0000      -0.819969       -22.3125
  28   2.0000      -0.776263       -21.1232
  29   2.0000      -0.764805       -20.8114
  30   2.0000      -0.748141       -20.3580
  31   2.0000      -0.744921       -20.2703
  32   2.0000      -0.733564       -19.9613
  33   2.0000      -0.694985       -18.9115
  34   2.0000      -0.690818       -18.7981
  35   2.0000      -0.685546       -18.6547
  36   2.0000      -0.643169       -17.5015
  37   2.0000      -0.629479       -17.1290
  38   2.0000      -0.597662       -16.2632
  39   2.0000      -0.596860       -16.2414
  40   2.0000      -0.573372       -15.6022
  41   2.0000      -0.503795       -13.7090
  42   0.0000      -0.109841        -2.9889
  43   0.0000      -0.073206        -1.9920
  44   0.0000      -0.041489        -1.1290
  45   0.0000      -0.002775        -0.0755
  46   0.0000       0.000402         0.0109

MULLIKEN ATOMIC CHARGES
-----------------------
   0 N :   -0.216560
   1 N :   -0.216562
   2 C :    0.107568
   3 C :    0.107567
   4 C :    0.212142
   5 Cl:    0.052635
   6 Cl:    0.052636
   7 C :    0.065337
   8 C :    0.065337
   9 H :    0.093546
  10 H :    0.093546
  11 H :    0.113472
  12 H :    0.113472
  13 H :    0.113472
  14 H :    0.113472
  15 H :    0.128919
Sum of atomic charges:    1.0000000

LOEWDIN ATOMIC CHARGES
----------------------
   0 N :    0.080270
   1 N :    0.080269
   2 C :   -0.146650
   3 C :   -0.146650
   4 C :    0.116435
   5 Cl:    0.247730
   6 Cl:    0.247730
   7 C :    0.055638
   8 C :    0.055638
   9 H :    0.055236
  10 H :    0.055236
  11 H :    0.058477
  12 H :    0.058477
  13 H :    0.058477
  14 H :    0.058477
  15 H :    0.065208

  Mayer bond orders larger than 0.100000
B(  0-N ,  2-C ) :   1.1669 B(  0-N ,  4-C ) :   1.3496 B(  0-N ,  7-C ) :   0.8764
B(  1-N ,  3-C ) :   1.1669 B(  1-N ,  4-C ) :   1.3496 B(  1-N ,  8-C ) :   0.8764
B(  2-C ,  3-C ) :   1.5403 B(  2-C ,  5-Cl) :   1.1804 B(  3-C ,  6-Cl) :   1.1804
B(  4-C , 15-H ) :   0.9664 B(  7-C ,  9-H ) :   0.9698 B(  7-C , 11-H ) :   0.9701
B(  7-C , 14-H ) :   0.9701 B(  8-C , 10-H ) :   0.9698 B(  8-C , 12-H ) :   0.9701
B(  8-C , 13-H ) :   0.9701

Dispersion correction           -0.002508357
FINAL SINGLE POINT ENERGY     -1223.824445628404

DIPOLE MOMENT
-------------
                                X             Y             Z
Electronic contribution:      0.00000       0.00000     -13.93011
Nuclear contribution   :      0.00000       0.00000      16.51434
                        -----------------------------------------
Total Dipole Moment    :      0.00000       0.00000       2.58423
                        -----------------------------------------
Magnitude (a.u.)       :      2.58423
Magnitude (Debye)      :      6.56858

Rotational constants in cm-1:     0.051070     0.036427     0.021438
Rotational constants in MHz :  1531.045042  1092.041975   642.698411

                             ****ORCA TERMINATED NORMALLY****
TOTAL RUN TIME: 0 days 0 hours 0 minutes 32 seconds 222 msec
