                         Program Version 5.0.4 -  RELEASE  -
|  1> # ORCA 5.0.4 - 3+.inp # write input file
|  2> # Basic Mode
|  3> #
|  4> ! Freq wB97X Def2-SVP D4 SlowConv TightSCF DEFGRID2 Def2/J RIJCOSX
|  5>
|  6>
|  7>
|  8> %maxcore 4500
|  9>
| 10> %geom
| 11> Maxiter 150
| 12> END
| 13>
| 14> * xyzfile 1 1 3+.xyz
| 15>
| 16>                          ****END OF INPUT****

CARTESIAN COORDINATES (ANGSTROEM)
---------------------------------
  N      0.000000    1.086524    1.056390
  N     -0.000000   -1.086525    1.056389
  C      0.000000    0.682380   -0.261713
  C     -0.000000   -0.682380   -0.261714
  C      0.000000   -0.000000    1.824601
  Cl     0.000000    1.763364   -1.558961
  Cl    -0.000002   -1.763363   -1.558962
  C     -0.000000    2.471869    1.519704
  C      0.000000   -2.471869    1.519704
  H     -0.000000    2.467608    2.615295
  H     -0.000000   -2.467607    2.615295
  H     -0.900027    2.976313    1.145964
  H     -0.900026   -2.976314    1.145965
  H      0.900028   -2.976313    1.145966
  H      0.900027    2.976313    1.145965
  H     -0.000000   -0.000001    2.915337

 Total Charge           Charge          ....    1
 Multiplicity           Mult            ....    1
 Number of Electrons    NEL             ....   84
 Basis Dimension        Dim             ....  169

ORBITAL ENERGIES
----------------

  NO   OCC          E(Eh)            E(eV)
   0   2.0000    -101.659311     -2766.2905
   1   2.0000    -101.659297     -2766.2901
   2   2.0000     -14.688669      -399.6990
   3   2.0000     -14.688644      -399.6983
   4   2.0000     -10.559433      -287.3368
   5   2.0000     -10.547153      -287.0026
   6   2.0000     -10.546593      -286.9874
   7   2.0000     -10.491937      -285.5001
   8   2.0000     -10.491915      -285.4995
   9   2.0000      -9.731773      -264.8150
  10   2.0000      -9.731753      -264.8145
  11   2.0000      -7.501385      -204.1230
  12   2.0000      -7.501380      -204.1229
  13   2.0000      -7.489193      -203.7913
  14   2.0000      -7.489188      -203.7912
  15   2.0000      -7.489103      -203.7889
  16   2.0000      -7.489092      -203.7886
  17   2.0000      -1.397570       -38.0298
  18   2.0000      -1.275586       -34.7104
  19   2.0000      -1.199206       -32.6321
  20   2.0000      -1.159821       -31.5603
  21   2.0000      -1.095638       -29.8138
  22   2.0000      -1.046766       -28.4839
  23   2.0000      -1.001760       -27.2593
  24   2.0000      -0.925166       -25.1750
  25   2.0000      -0.914039       -24.8723
  26   2.0000      -0.838415       -22.8144
  27   2.0000      -0.819982       -22.3128
  28   2.0000      -0.776278       -21.1236
  29   2.0000      -0.764818       -20.8117
  30   2.0000      -0.748134       -20.3578
  31   2.0000      -0.744927       -20.2705
  32   2.0000      -0.733579       -19.9617
  33   2.0000      -0.694982       -18.9114
  34   2.0000      -0.690807       -18.7978
  35   2.0000      -0.685536       -18.6544
  36   2.0000      -0.643174       -17.5017
  37   2.0000      -0.629478       -17.1290
  38   2.0000      -0.597662       -16.2632
  39   2.0000      -0.596857       -16.2413
  40   2.0000      -0.573368       -15.6021
  41   2.0000      -0.503810       -13.7094
  42   0.0000      -0.109870        -2.9897
  43   0.0000      -0.073218        -1.9924
  44   0.0000      -0.041480        -1.1287
  45   0.0000      -0.002782        -0.0757
  46   0.0000       0.000406         0.0110

MULLIKEN ATOMIC CHARGES
-----------------------
   0 N :   -0.216571
   1 N :   -0.216573
   2 C :    0.107629
   3 C :    0.107631
   4 C :    0.212215
   5 Cl:    0.052599
   6 Cl:    0.052599
   7 C :    0.065229
   8 C :    0.065228
   9 H :    0.093550
  10 H :    0.093549
  11 H :    0.113496
  12 H :    0.113496
  13 H :    0.113496
  14 H :    0.113496
  15 H :    0.128929
Sum of atomic charges:    1.0000000

LOEWDIN ATOMIC CHARGES
----------------------
   0 N :    0.080253
   1 N :    0.080252
   2 C :   -0.146632
   3 C :   -0.146632
   4 C :    0.116512
   5 Cl:    0.247724
   6 Cl:    0.247725
   7 C :    0.055575
   8 C :    0.055574
   9 H :    0.055234
  10 H :    0.055234
  11 H :    0.058492
  12 H :    0.058491
  13 H :    0.058492
  14 H :    0.058492
  15 H :    0.065214

  Mayer bond orders larger than 0.100000
B(  0-N ,  2-C ) :   1.1669 B(  0-N ,  4-C ) :   1.3496 B(  0-N ,  7-C ) :   0.8764
B(  1-N ,  3-C ) :   1.1669 B(  1-N ,  4-C ) :   1.3496 B(  1-N ,  8-C ) :   0.8764
B(  2-C ,  3-C ) :   1.5404 B(  2-C ,  5-Cl) :   1.1803 B(  3-C ,  6-Cl) :   1.1803
B(  4-C , 15-H ) :   0.9664 B(  7-C ,  9-H ) :   0.9698 B(  7-C , 11-H ) :   0.9701
B(  7-C , 14-H ) :   0.9701 B(  8-C , 10-H ) :   0.9698 B(  8-C , 12-H ) :   0.9701
B(  8-C , 13-H ) :   0.9701

Dispersion correction           -0.002508370
FINAL SINGLE POINT ENERGY     -1223.824446029896

DIPOLE MOMENT
-------------
                                X             Y             Z
Electronic contribution:     -0.00001       0.00000     -13.92975
Nuclear contribution   :      0.00001      -0.00000      16.51408
                        -----------------------------------------
Total Dipole Moment    :      0.00000       0.00000       2.58433
                        -----------------------------------------
Magnitude (a.u.)       :      2.58433
Magnitude (Debye)      :      6.56886

Dispersion correction in the Hessian             ... Starting D4

VIBRATIONAL FREQUENCIES
-----------------------

Scaling factor for frequencies =  1.000000000  (already applied!)

   0:         0.00 cm**-1
   1:         0.00 cm**-1
   2:         0.00 cm**-1
   3:         0.00 cm**-1
   4:         0.00 cm**-1
   5:         0.00 cm**-1
   6:        80.76 cm**-1
   7:        81.52 cm**-1
   8:       112.62 cm**-1
   9:       165.26 cm**-1
  10:       174.64 cm**-1
  11:       235.37 cm**-1
  12:       271.48 cm**-1
  13:       283.27 cm**-1
  14:       320.28 cm**-1
  15:       443.55 cm**-1
  16:       551.38 cm**-1
  17:       560.88 cm**-1
  18:       645.32 cm**-1
  19:       650.15 cm**-1
  20:       690.20 cm**-1
  21:       853.92 cm**-1
  22:       875.93 cm**-1
  23:      1104.69 cm**-1
  24:      1106.65 cm**-1
  25:      1141.82 cm**-1
  26:      1142.13 cm**-1
  27:      1147.98 cm**-1
  28:      1212.18 cm**-1
  29:      1241.74 cm**-1
  30:      1406.52 cm**-1
  31:      1435.47 cm**-1
  32:      1446.76 cm**-1
  33:      1449.33 cm**-1
  34:      1453.93 cm**-1
  35:      1455.23 cm**-1
  36:      1477.08 cm**-1
  37:      1508.97 cm**-1
  38:      1524.38 cm**-1
  39:      1669.62 cm**-1
  40:      1679.91 cm**-1
  41:      3105.30 cm**-1
  42:      3105.37 cm**-1
  43:      3226.94 cm**-1
  44:      3226.96 cm**-1
  45:      3240.70 cm**-1
  46:      3240.72 cm**-1
  47:      3290.03 cm**-1

IR SPECTRUM
-----------

 Mode   freq       eps      Int      T**2         TX        TY        TZ
       cm**-1   L/(mol*cm) km/mol    a.u.
----------------------------------------------------------------------------
  6:     80.76   0.000000    0.00  0.000000  (-0.000006 -0.000000  0.000000)
  7:     81.52   0.000134    0.68  0.000512  (-0.022617  0.000000  0.000000)
  8:    112.62   0.000000    0.00  0.000000  ( 0.000001 -0.000000  0.000000)
  9:    165.26   0.000816    4.13  0.001542  ( 0.039262 -0.000000 -0.000000)
 10:    174.64   0.000178    0.90  0.000317  ( 0.000000 -0.000000  0.017816)
 11:    235.37   0.000005    0.03  0.000007  ( 0.000000  0.002580 -0.000000)
 12:    271.48   0.000632    3.20  0.000727  ( 0.000000  0.000000  0.026964)
 13:    283.27   0.000145    0.73  0.000160  ( 0.012633 -0.000000 -0.000000)
 14:    320.28   0.000000    0.00  0.000000  ( 0.000000 -0.000000 -0.000000)
 15:    443.55   0.001535    7.75  0.001080  ( 0.000000 -0.032858  0.000000)
 16:    551.38   0.001727    8.73  0.000977  (-0.000000  0.000000  0.031264)
 17:    560.88   0.000010    0.05  0.000006  (-0.000000 -0.002401  0.000000)
 18:    645.32   0.002815   14.23  0.001361  ( 0.036897  0.000000  0.000000)
 19:    650.15   0.000201    1.02  0.000097  ( 0.000000 -0.000000 -0.009829)
 20:    690.20   0.000000    0.00  0.000000  ( 0.000000  0.000000  0.000000)
 21:    853.92   0.001999   10.10  0.000730  (-0.027026 -0.000000  0.000000)
 22:    875.93   0.000066    0.34  0.000024  (-0.000000  0.004865  0.000000)
 23:   1104.69   0.000186    0.94  0.000053  (-0.000000  0.000004  0.007247)
 24:   1106.65   0.000959    4.84  0.000270  ( 0.000000 -0.016441  0.000002)
 25:   1141.82   0.001342    6.78  0.000367  ( 0.000000 -0.000000  0.019152)
 26:   1142.13   0.000000    0.00  0.000000  ( 0.000000 -0.000000  0.000001)
 27:   1147.98   0.000021    0.11  0.000006  ( 0.002393 -0.000000 -0.000000)
 28:   1212.18   0.018087   91.40  0.004656  ( 0.000000  0.068237  0.000000)
 29:   1241.74   0.002923   14.77  0.000734  (-0.000000 -0.027101 -0.000000)
 30:   1406.52   0.000262    1.32  0.000058  (-0.000000 -0.000000 -0.007627)
 31:   1435.47   0.000120    0.61  0.000026  ( 0.000001 -0.005107 -0.000000)
 32:   1446.76   0.001314    6.64  0.000283  ( 0.000000  0.000002 -0.016837)
 33:   1449.33   0.001256    6.35  0.000270  (-0.000000 -0.016443 -0.000001)
 34:   1453.93   0.000000    0.00  0.000000  ( 0.000000 -0.000000 -0.000001)
 35:   1455.23   0.009232   46.66  0.001980  (-0.044495  0.000000  0.000000)
 36:   1477.08   0.012393   62.63  0.002618  (-0.000000  0.000000 -0.051170)
 37:   1508.97   0.000936    4.73  0.000193  ( 0.000000  0.013910 -0.000000)
 38:   1524.38   0.000259    1.31  0.000053  ( 0.000000  0.000000 -0.007279)
 39:   1669.62   0.022371  113.05  0.004181  (-0.000000  0.064663  0.000004)
 40:   1679.91   0.014064   71.07  0.002613  ( 0.000000 -0.000005  0.051113)
 41:   3105.30   0.000339    1.71  0.000034  ( 0.000000 -0.000018 -0.005837)
 42:   3105.37   0.000121    0.61  0.000012  (-0.000000 -0.003483  0.000031)
 43:   3226.94   0.000000    0.00  0.000000  (-0.000204 -0.000000 -0.000000)
 44:   3226.96   0.000638    3.22  0.000062  (-0.007854  0.000000  0.000000)
 45:   3240.70   0.000166    0.84  0.000016  (-0.000000  0.000003 -0.003993)
 46:   3240.72   0.000115    0.58  0.000011  (-0.000001 -0.003324 -0.000003)
 47:   3290.03   0.008262   41.75  0.000784  ( 0.000000  0.000000  0.027994)

--------------------------
THERMOCHEMISTRY AT 298.15K
--------------------------

Temperature         ... 298.15 K
Pressure            ... 1.00 atm
Total Mass          ... 166.03 AMU

Throughout the following assumptions are being made:
  (1) The electronic state is orbitally nondegenerate
  (2) There are no thermally accessible electronically excited states
  (3) Hindered rotations indicated by low frequency modes are not
      treated as such but are treated as vibrations and this may
      cause some error
  (4) All equations used are the standard statistical mechanics
      equations for an ideal gas
  (5) All vibrations are strictly harmonic

freq.      80.76  E(vib)   ...       0.48
freq.      81.52  E(vib)   ...       0.48
freq.     112.62  E(vib)   ...       0.45
freq.     165.26  E(vib)   ...       0.39
freq.     174.64  E(vib)   ...       0.38
freq.     235.37  E(vib)   ...       0.32
freq.     271.48  E(vib)   ...       0.29
freq.     283.27  E(vib)   ...       0.28
freq.     320.28  E(vib)   ...       0.25
freq.     443.55  E(vib)   ...       0.17
freq.     551.38  E(vib)   ...       0.12
freq.     560.88  E(vib)   ...       0.11
freq.     645.32  E(vib)   ...       0.09
freq.     650.15  E(vib)   ...       0.08
freq.     690.20  E(vib)   ...       0.07
freq.     853.92  E(vib)   ...       0.04
freq.     875.93  E(vib)   ...       0.04
freq.    1104.69  E(vib)   ...       0.02
freq.    1106.65  E(vib)   ...       0.02
freq.    1141.82  E(vib)   ...       0.01
freq.    1142.13  E(vib)   ...       0.01
freq.    1147.98  E(vib)   ...       0.01
freq.    1212.18  E(vib)   ...       0.01
freq.    1241.74  E(vib)   ...       0.01
freq.    1406.52  E(vib)   ...       0.00
freq.    1435.47  E(vib)   ...       0.00
freq.    1446.76  E(vib)   ...       0.00
freq.    1449.33  E(vib)   ...       0.00
freq.    1453.93  E(vib)   ...       0.00
freq.    1455.23  E(vib)   ...       0.00
freq.    1477.08  E(vib)   ...       0.00
freq.    1508.97  E(vib)   ...       0.00
freq.    1524.38  E(vib)   ...       0.00
freq.    1669.62  E(vib)   ...       0.00
freq.    1679.91  E(vib)   ...       0.00
freq.    3105.30  E(vib)   ...       0.00
freq.    3105.37  E(vib)   ...       0.00
freq.    3226.94  E(vib)   ...       0.00
freq.    3226.96  E(vib)   ...       0.00
freq.    3240.70  E(vib)   ...       0.00
freq.    3240.72  E(vib)   ...       0.00
freq.    3290.03  E(vib)   ...       0.00

------------
INNER ENERGY
------------

The inner energy is: U= E(el) + E(ZPE) + E(vib) + E(rot) + E(trans)
    E(el)   - is the total energy from the electronic structure calculation
              = E(kin-el) + E(nuc-el) + E(el-el) + E(nuc-nuc)
    E(ZPE)  - the the zero temperature vibrational energy from the frequency calculation
    E(vib)  - the the finite temperature correction to E(ZPE) due to population
              of excited vibrational states
    E(rot)  - is the rotational thermal energy
    E(trans)- is the translational thermal energy

Summary of contributions to the inner energy U:
Electronic energy                ...  -1223.82444603 Eh
Zero point energy                ...      0.12310525 Eh      77.25 kcal/mol
Thermal vibrational correction   ...      0.00662465 Eh       4.16 kcal/mol
Thermal rotational correction    ...      0.00141627 Eh       0.89 kcal/mol
Thermal translational correction ...      0.00141627 Eh       0.89 kcal/mol
-----------------------------------------------------------------------
Total thermal energy                  -1223.69188359 Eh

Summary of corrections to the electronic energy:
(perhaps to be used in another calculation)
Total thermal correction                  0.00945719 Eh       5.93 kcal/mol
Non-thermal (ZPE) correction              0.12310525 Eh      77.25 kcal/mol
-----------------------------------------------------------------------
Total correction                          0.13256244 Eh      83.18 kcal/mol

--------
ENTHALPY
--------

The enthalpy is H = U + kB*T
                kB is Boltzmann's constant
Total free energy                 ...  -1223.69188359 Eh
Thermal Enthalpy correction       ...      0.00094421 Eh       0.59 kcal/mol
-----------------------------------------------------------------------
Total Enthalpy                    ...  -1223.69093938 Eh

Note: Rotational entropy computed according to Herzberg
Infrared and Raman Spectra, Chapter V,1, Van Nostrand Reinhold, 1945
Point Group:  C2v, Symmetry Number:   2
Rotational constants in cm-1:     0.051071     0.036427     0.021439

Vibrational entropy computed according to the QRRHO of S. Grimme
Chem.Eur.J. 2012 18 9955

-------
ENTROPY
-------

The entropy contributions are T*S = T*(S(el)+S(vib)+S(rot)+S(trans))
     S(el)   - electronic entropy
     S(vib)  - vibrational entropy
     S(rot)  - rotational entropy
     S(trans)- translational entropy
The entropies will be listed as multiplied by the temperature to get
units of energy

Electronic entropy                ...      0.00000000 Eh      0.00 kcal/mol
Vibrational entropy               ...      0.01165152 Eh      7.31 kcal/mol
Rotational entropy                ...      0.01363840 Eh      8.56 kcal/mol
Translational entropy             ...      0.01958930 Eh     12.29 kcal/mol
-----------------------------------------------------------------------
Final entropy term                ...      0.04487922 Eh     28.16 kcal/mol

In case the symmetry of your molecule has not been determined correctly
or in case you have a reason to use a different symmetry number we print
out the resulting rotational entropy values for sn=1,12 :
 --------------------------------------------------------
|  sn= 1 | S(rot)=       0.01429286 Eh      8.97 kcal/mol|
|  sn= 2 | S(rot)=       0.01363840 Eh      8.56 kcal/mol|
|  sn= 3 | S(rot)=       0.01325557 Eh      8.32 kcal/mol|
|  sn= 4 | S(rot)=       0.01298395 Eh      8.15 kcal/mol|
|  sn= 5 | S(rot)=       0.01277326 Eh      8.02 kcal/mol|
|  sn= 6 | S(rot)=       0.01260112 Eh      7.91 kcal/mol|
|  sn= 7 | S(rot)=       0.01245557 Eh      7.82 kcal/mol|
|  sn= 8 | S(rot)=       0.01232949 Eh      7.74 kcal/mol|
|  sn= 9 | S(rot)=       0.01221828 Eh      7.67 kcal/mol|
|  sn=10 | S(rot)=       0.01211880 Eh      7.60 kcal/mol|
|  sn=11 | S(rot)=       0.01202881 Eh      7.55 kcal/mol|
|  sn=12 | S(rot)=       0.01194666 Eh      7.50 kcal/mol|
 --------------------------------------------------------

-------------------
GIBBS FREE ENERGY
-------------------

The Gibbs free energy is G = H - T*S

Total enthalpy                    ...  -1223.69093938 Eh
Total entropy correction          ...     -0.04487922 Eh    -28.16 kcal/mol
-----------------------------------------------------------------------
Final Gibbs free energy         ...  -1223.73581860 Eh

                             ****ORCA TERMINATED NORMALLY****
TOTAL RUN TIME: 0 days 0 hours 10 minutes 47 seconds 169 msec
