                         Program Version 5.0.4 -  RELEASE  -
|  1> ! SP wB97X D4 def2-SVP def2/J defgrid2
|  2> %maxcore 3000
|  3> %PAL NPROCS 4 END
|  4> * xyz 0 1
|  5> N -0.0 1.0684 1.1124
|  6> N 0.0 -1.0684 1.1124
|  7> C -0.0 0.6785 -0.2132
|  8> C 0.0 -0.6785 -0.2132
|  9> C 0.0 -0.0 1.9551
| 10> Cl -0.0 1.7625 -1.5261
| 11> Cl -0.0 -1.7625 -1.5261
| 12> C -0.0 2.4526 1.5504
| 13> C 0.0 -2.4526 1.5504
| 14> H -0.0 2.4521 2.6463
| 15> H 0.0 -2.4521 2.6463
| 16> H -0.8957 2.9738 1.183
| 17> H -0.8957 -2.9738 1.183
| 18> H 0.8957 -2.9738 1.183
| 19> H 0.8957 2.9738 1.183
| 20> **                         ****END OF INPUT****

CARTESIAN COORDINATES (ANGSTROEM)
---------------------------------
  N     -0.000000    1.068400    1.112400
  N      0.000000   -1.068400    1.112400
  C     -0.000000    0.678500   -0.213200
  C      0.000000   -0.678500   -0.213200
  C      0.000000   -0.000000    1.955100
  Cl    -0.000000    1.762500   -1.526100
  Cl    -0.000000   -1.762500   -1.526100
  C     -0.000000    2.452600    1.550400
  C      0.000000   -2.452600    1.550400
  H     -0.000000    2.452100    2.646300
  H      0.000000   -2.452100    2.646300
  H     -0.895700    2.973800    1.183000
  H     -0.895700   -2.973800    1.183000
  H      0.895700   -2.973800    1.183000
  H      0.895700    2.973800    1.183000

 Total Charge           Charge          ....    0
 Multiplicity           Mult            ....    1
 Number of Electrons    NEL             ....   84
 Basis Dimension        Dim             ....  164

ORBITAL ENERGIES
----------------

  NO   OCC          E(Eh)            E(eV)
   0   2.0000    -101.501060     -2761.9843
   1   2.0000    -101.501045     -2761.9839
   2   2.0000     -14.468236      -393.7007
   3   2.0000     -14.468230      -393.7005
   4   2.0000     -10.359233      -281.8891
   5   2.0000     -10.358656      -281.8734
   6   2.0000     -10.315614      -280.7021
   7   2.0000     -10.315586      -280.7014
   8   2.0000     -10.286279      -279.9039
   9   2.0000      -9.573632      -260.5118
  10   2.0000      -9.573611      -260.5112
  11   2.0000      -7.342688      -199.8047
  12   2.0000      -7.342683      -199.8046
  13   2.0000      -7.331394      -199.4974
  14   2.0000      -7.331383      -199.4971
  15   2.0000      -7.331369      -199.4967
  16   2.0000      -7.331365      -199.4966
  17   2.0000      -1.175065       -31.9751
  18   2.0000      -1.066555       -29.0224
  19   2.0000      -1.024052       -27.8659
  20   2.0000      -0.989762       -26.9328
  21   2.0000      -0.905357       -24.6360
  22   2.0000      -0.834441       -22.7063
  23   2.0000      -0.812464       -22.1083
  24   2.0000      -0.714661       -19.4469
  25   2.0000      -0.709048       -19.2942
  26   2.0000      -0.640057       -17.4168
  27   2.0000      -0.615571       -16.7505
  28   2.0000      -0.580833       -15.8053
  29   2.0000      -0.567509       -15.4427
  30   2.0000      -0.566886       -15.4258
  31   2.0000      -0.558395       -15.1947
  32   2.0000      -0.519764       -14.1435
  33   2.0000      -0.516435       -14.0529
  34   2.0000      -0.500377       -13.6159
  35   2.0000      -0.468510       -12.7488
  36   2.0000      -0.458893       -12.4871
  37   2.0000      -0.446388       -12.1468
  38   2.0000      -0.442755       -12.0480
  39   2.0000      -0.382276       -10.4023
  40   2.0000      -0.320395        -8.7184
  41   2.0000      -0.317624        -8.6430
  42   0.0000       0.104642         2.8475
  43   0.0000       0.127559         3.4711
  44   0.0000       0.128796         3.5047
  45   0.0000       0.164159         4.4670
  46   0.0000       0.168287         4.5793

MULLIKEN ATOMIC CHARGES
-----------------------
   0 N :   -0.245039
   1 N :   -0.245040
   2 C :    0.086585
   3 C :    0.086583
   4 C :   -0.102394
   5 Cl:   -0.062125
   6 Cl:   -0.062125
   7 C :    0.106031
   8 C :    0.106030
   9 H :    0.066192
  10 H :    0.066192
  11 H :    0.049778
  12 H :    0.049778
  13 H :    0.049778
  14 H :    0.049778
Sum of atomic charges:   -0.0000000

LOEWDIN ATOMIC CHARGES
----------------------
   0 N :    0.009155
   1 N :    0.009155
   2 C :   -0.179555
   3 C :   -0.179555
   4 C :   -0.233957
   5 Cl:    0.156821
   6 Cl:    0.156821
   7 C :    0.030745
   8 C :    0.030745
   9 H :    0.042912
  10 H :    0.042912
  11 H :    0.028450
  12 H :    0.028450
  13 H :    0.028450
  14 H :    0.028450

  Mayer bond orders larger than 0.100000
B(  0-N ,  2-C ) :   1.1290 B(  0-N ,  4-C ) :   1.2157 B(  0-N ,  7-C ) :   0.9400
B(  1-N ,  3-C ) :   1.1290 B(  1-N ,  4-C ) :   1.2157 B(  1-N ,  8-C ) :   0.9400
B(  2-C ,  3-C ) :   1.6040 B(  2-C ,  5-Cl) :   1.0771 B(  3-C ,  6-Cl) :   1.0771
B(  7-C ,  9-H ) :   0.9706 B(  7-C , 11-H ) :   0.9787 B(  7-C , 14-H ) :   0.9787
B(  8-C , 10-H ) :   0.9706 B(  8-C , 12-H ) :   0.9787 B(  8-C , 13-H ) :   0.9787

Dispersion correction           -0.002555340
FINAL SINGLE POINT ENERGY     -1223.406156550388

DIPOLE MOMENT
-------------
                                X             Y             Z
Electronic contribution:      0.00000       0.00000     -13.96589
Nuclear contribution   :      0.00000       0.00000      13.71683
                        -----------------------------------------
Total Dipole Moment    :      0.00000       0.00000      -0.24906
                        -----------------------------------------
Magnitude (a.u.)       :      0.24906
Magnitude (Debye)      :      0.63306

Rotational constants in cm-1:     0.051589     0.036742     0.021637
Rotational constants in MHz :  1546.608274  1101.498610   648.664585

                             ****ORCA TERMINATED NORMALLY****
TOTAL RUN TIME: 0 days 0 hours 0 minutes 32 seconds 985 msec
