                         Program Version 5.0.3 -  RELEASE  -
|  1> # ORCAForces - ../2023_02/pKa_prediction/Yates_carbene_xyzs/Our_level/Uncharged/Water/2/MeCl_Water.inp
|  2> # Basic Mode
|  3> #
|  4> ! Opt FREQ wB97X D4 Def2-SVP SlowConv TightSCF DEFGRID2 Def2/J RIJCOSX CPCM(Water)
|  5>
|  6> %maxcore 4500
|  7>
|  8> %PAL NPROCS 4 END
|  9>
| 10> %geom
| 11> Maxiter 150
| 12> END
| 13>
| 14> * xyzfile 0 1 MeCl.xyz
| 15>
| 16>                          ****END OF INPUT****
 Total Charge           Charge          ....    0
 Multiplicity           Mult            ....    1
 Number of Electrons    NEL             ....   84
Dispersion correction           -0.002548145
FINAL SINGLE POINT ENERGY     -1223.414631106613
Dispersion correction            ... Starting D4
Dispersion correction           -0.002552712
FINAL SINGLE POINT ENERGY     -1223.415464267840
Dispersion correction            ... Starting D4
Dispersion correction           -0.002554362
FINAL SINGLE POINT ENERGY     -1223.415551780123
Dispersion correction            ... Starting D4
Dispersion correction           -0.002554619
FINAL SINGLE POINT ENERGY     -1223.415571705761
Dispersion correction            ... Starting D4
Dispersion correction           -0.002554481
FINAL SINGLE POINT ENERGY     -1223.415574732818
Dispersion correction            ... Starting D4
                    ***********************HURRAY********************

CARTESIAN COORDINATES (ANGSTROEM)
---------------------------------
  N     -0.000000    1.068401    1.112444
  N      0.000000   -1.068402    1.112444
  C     -0.000000    0.678537   -0.213237
  C      0.000000   -0.678537   -0.213237
  C      0.000001   -0.000000    1.955094
  Cl    -0.000000    1.762528   -1.526093
  Cl    -0.000000   -1.762528   -1.526094
  C     -0.000000    2.452636    1.550386
  C      0.000000   -2.452636    1.550386
  H     -0.000001    2.452126    2.646308
  H      0.000001   -2.452124    2.646308
  H     -0.895713    2.973843    1.182956
  H     -0.895714   -2.973842    1.182958
  H      0.895713   -2.973843    1.182956
  H      0.895713    2.973842    1.182958

 Multiplicity           Mult            ....    1
 Number of Electrons    NEL             ....   84
 Basis Dimension        Dim             ....  164

ORBITAL ENERGIES
----------------

  NO   OCC          E(Eh)            E(eV)
   0   2.0000    -101.502558     -2762.0250
   1   2.0000    -101.502542     -2762.0246
   2   2.0000     -14.471522      -393.7901
   3   2.0000     -14.471516      -393.7900
   4   2.0000     -10.361489      -281.9504
   5   2.0000     -10.360913      -281.9348
   6   2.0000     -10.308416      -280.5063
   7   2.0000     -10.308388      -280.5055
   8   2.0000     -10.294582      -280.1298
   9   2.0000      -9.575090      -260.5514
  10   2.0000      -9.575069      -260.5509
  11   2.0000      -7.344164      -199.8449
  12   2.0000      -7.344159      -199.8447
  13   2.0000      -7.332835      -199.5366
  14   2.0000      -7.332831      -199.5365
  15   2.0000      -7.332826      -199.5363
  16   2.0000      -7.332815      -199.5360
  17   2.0000      -1.177883       -32.0518
  18   2.0000      -1.067541       -29.0493
  19   2.0000      -1.025869       -27.9153
  20   2.0000      -0.991001       -26.9665
  21   2.0000      -0.903557       -24.5870
  22   2.0000      -0.836390       -22.7593
  23   2.0000      -0.808394       -21.9975
  24   2.0000      -0.714649       -19.4466
  25   2.0000      -0.710523       -19.3343
  26   2.0000      -0.638218       -17.3668
  27   2.0000      -0.615975       -16.7615
  28   2.0000      -0.581156       -15.8141
  29   2.0000      -0.567326       -15.4377
  30   2.0000      -0.561144       -15.2695
  31   2.0000      -0.556292       -15.1375
  32   2.0000      -0.515408       -14.0250
  33   2.0000      -0.511041       -13.9061
  34   2.0000      -0.496115       -13.5000
  35   2.0000      -0.469140       -12.7660
  36   2.0000      -0.459645       -12.5076
  37   2.0000      -0.448142       -12.1946
  38   2.0000      -0.443842       -12.0776
  39   2.0000      -0.381721       -10.3872
  40   2.0000      -0.336450        -9.1553
  41   2.0000      -0.321118        -8.7381
  42   0.0000       0.104005         2.8301
  43   0.0000       0.118574         3.2266
  44   0.0000       0.127815         3.4780
  45   0.0000       0.168489         4.5848
  46   0.0000       0.178408         4.8547

MULLIKEN ATOMIC CHARGES
-----------------------
   0 N :   -0.238313
   1 N :   -0.238312
   2 C :    0.093347
   3 C :    0.093346
   4 C :   -0.172628
   5 Cl:   -0.061342
   6 Cl:   -0.061342
   7 C :    0.091674
   8 C :    0.091674
   9 H :    0.064221
  10 H :    0.064220
  11 H :    0.068364
  12 H :    0.068364
  13 H :    0.068364
  14 H :    0.068364
Sum of atomic charges:   -0.0000000

LOEWDIN ATOMIC CHARGES
----------------------
   0 N :    0.016062
   1 N :    0.016062
   2 C :   -0.176399
   3 C :   -0.176399
   4 C :   -0.288037
   5 Cl:    0.158945
   6 Cl:    0.158945
   7 C :    0.030369
   8 C :    0.030369
   9 H :    0.041588
  10 H :    0.041588
  11 H :    0.036727
  12 H :    0.036727
  13 H :    0.036727
  14 H :    0.036727

  Mayer bond orders larger than 0.100000
B(  0-N ,  2-C ) :   1.1401 B(  0-N ,  4-C ) :   1.2354 B(  0-N ,  7-C ) :   0.9285
B(  1-N ,  3-C ) :   1.1401 B(  1-N ,  4-C ) :   1.2354 B(  1-N ,  8-C ) :   0.9285
B(  2-C ,  3-C ) :   1.5945 B(  2-C ,  5-Cl) :   1.0755 B(  3-C ,  6-Cl) :   1.0755
B(  7-C ,  9-H ) :   0.9704 B(  7-C , 11-H ) :   0.9773 B(  7-C , 14-H ) :   0.9773
B(  8-C , 10-H ) :   0.9704 B(  8-C , 12-H ) :   0.9773 B(  8-C , 13-H ) :   0.9773

Dispersion correction           -0.002554423
FINAL SINGLE POINT ENERGY     -1223.415574882172

DIPOLE MOMENT
-------------
                                X             Y             Z
Electronic contribution:     -0.00000       0.00000     -14.16935
Nuclear contribution   :     -0.00000      -0.00000      13.71667
                        -----------------------------------------
Total Dipole Moment    :     -0.00000       0.00000      -0.45268
                        -----------------------------------------
Magnitude (a.u.)       :      0.45268
Magnitude (Debye)      :      1.15062

Dispersion correction in the Hessian             ... Starting D4

VIBRATIONAL FREQUENCIES
-----------------------

Scaling factor for frequencies =  1.000000000  (already applied!)

   0:         0.00 cm**-1
   1:         0.00 cm**-1
   2:         0.00 cm**-1
   3:         0.00 cm**-1
   4:         0.00 cm**-1
   5:         0.00 cm**-1
   6:       100.51 cm**-1
   7:       108.47 cm**-1
   8:       120.43 cm**-1
   9:       166.06 cm**-1
  10:       168.49 cm**-1
  11:       234.61 cm**-1
  12:       271.73 cm**-1
  13:       282.79 cm**-1
  14:       322.22 cm**-1
  15:       439.88 cm**-1
  16:       542.81 cm**-1
  17:       578.88 cm**-1
  18:       639.92 cm**-1
  19:       650.76 cm**-1
  20:       670.00 cm**-1
  21:       890.02 cm**-1
  22:      1081.86 cm**-1
  23:      1090.26 cm**-1
  24:      1112.16 cm**-1
  25:      1142.26 cm**-1
  26:      1143.72 cm**-1
  27:      1176.33 cm**-1
  28:      1383.87 cm**-1
  29:      1396.89 cm**-1
  30:      1418.41 cm**-1
  31:      1430.85 cm**-1
  32:      1446.93 cm**-1
  33:      1447.38 cm**-1
  34:      1464.77 cm**-1
  35:      1472.21 cm**-1
  36:      1478.45 cm**-1
  37:      1490.67 cm**-1
  38:      1699.41 cm**-1
  39:      3084.34 cm**-1
  40:      3084.99 cm**-1
  41:      3187.09 cm**-1
  42:      3187.12 cm**-1
  43:      3225.77 cm**-1
  44:      3225.97 cm**-1

IR SPECTRUM
-----------

 Mode   freq       eps      Int      T**2         TX        TY        TZ
       cm**-1   L/(mol*cm) km/mol    a.u.
----------------------------------------------------------------------------
  6:    100.51   0.000000    0.00  0.000000  (-0.000007 -0.000000  0.000000)
  7:    108.47   0.000363    1.83  0.001044  (-0.032303  0.000000 -0.000000)
  8:    120.43   0.000000    0.00  0.000000  (-0.000007  0.000000 -0.000000)
  9:    166.06   0.001993   10.07  0.003745  (-0.061199  0.000000  0.000000)
 10:    168.49   0.000130    0.66  0.000241  ( 0.000000 -0.000000  0.015532)
 11:    234.61   0.000036    0.18  0.000048  ( 0.000000 -0.006902  0.000000)
 12:    271.73   0.001839    9.29  0.002112  ( 0.045956  0.000000 -0.000000)
 13:    282.79   0.001790    9.05  0.001975  (-0.000000 -0.000000 -0.044443)
 14:    322.22   0.000000    0.00  0.000000  ( 0.000000 -0.000000  0.000000)
 15:    439.88   0.001860    9.40  0.001319  ( 0.000000  0.036321  0.000000)
 16:    542.81   0.001396    7.05  0.000802  ( 0.000000 -0.000000 -0.028327)
 17:    578.88   0.002809   14.20  0.001515  (-0.000000 -0.038917  0.000000)
 18:    639.92   0.000567    2.86  0.000276  (-0.016622 -0.000000  0.000000)
 19:    650.76   0.000951    4.80  0.000456  ( 0.000000  0.000000 -0.021351)
 20:    670.00   0.000000    0.00  0.000000  ( 0.000000  0.000000  0.000000)
 21:    890.02   0.000066    0.33  0.000023  ( 0.000000  0.004820 -0.000000)
 22:   1081.86   0.000080    0.40  0.000023  (-0.000000 -0.000000  0.004793)
 23:   1090.26   0.000008    0.04  0.000002  ( 0.000000  0.001544  0.000000)
 24:   1112.16   0.012649   63.92  0.003549  (-0.000000 -0.000000  0.059574)
 25:   1142.26   0.000038    0.19  0.000010  (-0.003232 -0.000000 -0.000000)
 26:   1143.72   0.000000    0.00  0.000000  ( 0.000000 -0.000000 -0.000000)
 27:   1176.33   0.018830   95.16  0.004995  ( 0.000000  0.070677  0.000000)
 28:   1383.87   0.003678   18.58  0.000829  ( 0.000000 -0.028797  0.000000)
 29:   1396.89   0.000381    1.93  0.000085  (-0.000000  0.000000 -0.009225)
 30:   1418.41   0.008812   44.53  0.001939  (-0.000000 -0.044031 -0.000000)
 31:   1430.85   0.001290    6.52  0.000281  (-0.000000  0.000000 -0.016775)
 32:   1446.93   0.000000    0.00  0.000000  ( 0.000000 -0.000000  0.000000)
 33:   1447.38   0.007868   39.76  0.001696  (-0.041187  0.000000  0.000000)
 34:   1464.77   0.009566   48.34  0.002038  ( 0.000000  0.000001  0.045145)
 35:   1472.21   0.005715   28.88  0.001211  ( 0.000000  0.034806 -0.000002)
 36:   1478.45   0.012849   64.94  0.002712  (-0.000000  0.000000 -0.052079)
 37:   1490.67   0.016425   83.00  0.003438  ( 0.000000 -0.058638 -0.000000)
 38:   1699.41   0.006447   32.58  0.001184  ( 0.000000 -0.000000 -0.034406)
 39:   3084.34   0.013087   66.14  0.001324  (-0.000000 -0.036389  0.000001)
 40:   3084.99   0.000299    1.51  0.000030  (-0.000000  0.000007  0.005501)
 41:   3187.09   0.003339   16.87  0.000327  (-0.018081 -0.000000  0.000000)
 42:   3187.12   0.000000    0.00  0.000000  ( 0.000016  0.000000  0.000000)
 43:   3225.77   0.000303    1.53  0.000029  (-0.000000  0.000003  0.005416)
 44:   3225.97   0.000057    0.29  0.000006  ( 0.000000  0.002354 -0.000008)

--------------------------
THERMOCHEMISTRY AT 298.15K
--------------------------

Temperature         ... 298.15 K
Pressure            ... 1.00 atm
Total Mass          ... 165.02 AMU

Throughout the following assumptions are being made:
  (1) The electronic state is orbitally nondegenerate
  (2) There are no thermally accessible electronically excited states
  (3) Hindered rotations indicated by low frequency modes are not
      treated as such but are treated as vibrations and this may
      cause some error
  (4) All equations used are the standard statistical mechanics
      equations for an ideal gas
  (5) All vibrations are strictly harmonic

freq.     100.51  E(vib)   ...       0.46
freq.     108.47  E(vib)   ...       0.45
freq.     120.43  E(vib)   ...       0.44
freq.     166.06  E(vib)   ...       0.39
freq.     168.49  E(vib)   ...       0.38
freq.     234.61  E(vib)   ...       0.32
freq.     271.73  E(vib)   ...       0.29
freq.     282.79  E(vib)   ...       0.28
freq.     322.22  E(vib)   ...       0.25
freq.     439.88  E(vib)   ...       0.17
freq.     542.81  E(vib)   ...       0.12
freq.     578.88  E(vib)   ...       0.11
freq.     639.92  E(vib)   ...       0.09
freq.     650.76  E(vib)   ...       0.08
freq.     670.00  E(vib)   ...       0.08
freq.     890.02  E(vib)   ...       0.04
freq.    1081.86  E(vib)   ...       0.02
freq.    1090.26  E(vib)   ...       0.02
freq.    1112.16  E(vib)   ...       0.01
freq.    1142.26  E(vib)   ...       0.01
freq.    1143.72  E(vib)   ...       0.01
freq.    1176.33  E(vib)   ...       0.01
freq.    1383.87  E(vib)   ...       0.00
freq.    1396.89  E(vib)   ...       0.00
freq.    1418.41  E(vib)   ...       0.00
freq.    1430.85  E(vib)   ...       0.00
freq.    1446.93  E(vib)   ...       0.00
freq.    1447.38  E(vib)   ...       0.00
freq.    1464.77  E(vib)   ...       0.00
freq.    1472.21  E(vib)   ...       0.00
freq.    1478.45  E(vib)   ...       0.00
freq.    1490.67  E(vib)   ...       0.00
freq.    1699.41  E(vib)   ...       0.00
freq.    3084.34  E(vib)   ...       0.00
freq.    3084.99  E(vib)   ...       0.00
freq.    3187.09  E(vib)   ...       0.00
freq.    3187.12  E(vib)   ...       0.00
freq.    3225.77  E(vib)   ...       0.00
freq.    3225.97  E(vib)   ...       0.00

------------
INNER ENERGY
------------

The inner energy is: U= E(el) + E(ZPE) + E(vib) + E(rot) + E(trans)
    E(el)   - is the total energy from the electronic structure calculation
              = E(kin-el) + E(nuc-el) + E(el-el) + E(nuc-nuc)
    E(ZPE)  - the the zero temperature vibrational energy from the frequency calculation
    E(vib)  - the the finite temperature correction to E(ZPE) due to population
              of excited vibrational states
    E(rot)  - is the rotational thermal energy
    E(trans)- is the translational thermal energy

Summary of contributions to the inner energy U:
Electronic energy                ...  -1223.41557488 Eh
Zero point energy                ...      0.10948713 Eh      68.70 kcal/mol
Thermal vibrational correction   ...      0.00647229 Eh       4.06 kcal/mol
Thermal rotational correction    ...      0.00141627 Eh       0.89 kcal/mol
Thermal translational correction ...      0.00141627 Eh       0.89 kcal/mol
-----------------------------------------------------------------------
Total thermal energy                  -1223.29678292 Eh

Summary of corrections to the electronic energy:
(perhaps to be used in another calculation)
Total thermal correction                  0.00930483 Eh       5.84 kcal/mol
Non-thermal (ZPE) correction              0.10948713 Eh      68.70 kcal/mol
-----------------------------------------------------------------------
Total correction                          0.11879196 Eh      74.54 kcal/mol

--------
ENTHALPY
--------

The enthalpy is H = U + kB*T
                kB is Boltzmann's constant
Total free energy                 ...  -1223.29678292 Eh
Thermal Enthalpy correction       ...      0.00094421 Eh       0.59 kcal/mol
-----------------------------------------------------------------------
Total Enthalpy                    ...  -1223.29583871 Eh

Note: Rotational entropy computed according to Herzberg
Infrared and Raman Spectra, Chapter V,1, Van Nostrand Reinhold, 1945
Point Group:  C2v, Symmetry Number:   2
Rotational constants in cm-1:     0.051589     0.036741     0.021637

Vibrational entropy computed according to the QRRHO of S. Grimme
Chem.Eur.J. 2012 18 9955

-------
ENTROPY
-------

The entropy contributions are T*S = T*(S(el)+S(vib)+S(rot)+S(trans))
     S(el)   - electronic entropy
     S(vib)  - vibrational entropy
     S(rot)  - rotational entropy
     S(trans)- translational entropy
The entropies will be listed as multiplied by the temperature to get
units of energy

Electronic entropy                ...      0.00000000 Eh      0.00 kcal/mol
Vibrational entropy               ...      0.01139022 Eh      7.15 kcal/mol
Rotational entropy                ...      0.01362526 Eh      8.55 kcal/mol
Translational entropy             ...      0.01958067 Eh     12.29 kcal/mol
-----------------------------------------------------------------------
Final entropy term                ...      0.04459615 Eh     27.98 kcal/mol

In case the symmetry of your molecule has not been determined correctly
or in case you have a reason to use a different symmetry number we print
out the resulting rotational entropy values for sn=1,12 :
 --------------------------------------------------------
|  sn= 1 | S(rot)=       0.01427971 Eh      8.96 kcal/mol|
|  sn= 2 | S(rot)=       0.01362526 Eh      8.55 kcal/mol|
|  sn= 3 | S(rot)=       0.01324242 Eh      8.31 kcal/mol|
|  sn= 4 | S(rot)=       0.01297080 Eh      8.14 kcal/mol|
|  sn= 5 | S(rot)=       0.01276011 Eh      8.01 kcal/mol|
|  sn= 6 | S(rot)=       0.01258797 Eh      7.90 kcal/mol|
|  sn= 7 | S(rot)=       0.01244242 Eh      7.81 kcal/mol|
|  sn= 8 | S(rot)=       0.01231634 Eh      7.73 kcal/mol|
|  sn= 9 | S(rot)=       0.01220513 Eh      7.66 kcal/mol|
|  sn=10 | S(rot)=       0.01210565 Eh      7.60 kcal/mol|
|  sn=11 | S(rot)=       0.01201566 Eh      7.54 kcal/mol|
|  sn=12 | S(rot)=       0.01193351 Eh      7.49 kcal/mol|
 --------------------------------------------------------

-------------------
GIBBS FREE ENERGY
-------------------

The Gibbs free energy is G = H - T*S

Total enthalpy                    ...  -1223.29583871 Eh
Total entropy correction          ...     -0.04459615 Eh    -27.98 kcal/mol
-----------------------------------------------------------------------
Final Gibbs free energy         ...  -1223.34043486 Eh

For completeness - the Gibbs free energy minus the electronic energy
G-E(el)                           ...      0.07514002 Eh     47.15 kcal/mol

                             ****ORCA TERMINATED NORMALLY****
TOTAL RUN TIME: 0 days 0 hours 5 minutes 49 seconds 720 msec
