                         Program Version 5.0.4 -  RELEASE  -
|  1> # ORCA 5.0.4 - 3.inp # write input file
|  2> # Basic Mode
|  3> #
|  4> ! Freq wB97X Def2-SVP D4 SlowConv TightSCF DEFGRID2 Def2/J RIJCOSX
|  5>
|  6>
|  7>
|  8> %maxcore 4500
|  9>
| 10> %geom
| 11> Maxiter 150
| 12> END
| 13>
| 14> * xyzfile 0 1 3.xyz
| 15>
| 16>                          ****END OF INPUT****

CARTESIAN COORDINATES (ANGSTROEM)
---------------------------------
  N     -0.000000    1.068401    1.112444
  N      0.000000   -1.068402    1.112444
  C     -0.000000    0.678537   -0.213237
  C      0.000000   -0.678537   -0.213237
  C      0.000001   -0.000000    1.955094
  Cl    -0.000000    1.762528   -1.526093
  Cl    -0.000000   -1.762528   -1.526094
  C     -0.000000    2.452636    1.550386
  C      0.000000   -2.452636    1.550386
  H     -0.000001    2.452126    2.646308
  H      0.000001   -2.452124    2.646308
  H     -0.895713    2.973843    1.182956
  H     -0.895714   -2.973842    1.182958
  H      0.895713   -2.973843    1.182956
  H      0.895713    2.973842    1.182958

 Total Charge           Charge          ....    0
 Multiplicity           Mult            ....    1
 Number of Electrons    NEL             ....   84
 Basis Dimension        Dim             ....  164

ORBITAL ENERGIES
----------------

  NO   OCC          E(Eh)            E(eV)
   0   2.0000    -101.501016     -2761.9831
   1   2.0000    -101.501000     -2761.9826
   2   2.0000     -14.468278      -393.7019
   3   2.0000     -14.468271      -393.7017
   4   2.0000     -10.359263      -281.8899
   5   2.0000     -10.358687      -281.8742
   6   2.0000     -10.315674      -280.7037
   7   2.0000     -10.315646      -280.7030
   8   2.0000     -10.286325      -279.9051
   9   2.0000      -9.573599      -260.5109
  10   2.0000      -9.573578      -260.5103
  11   2.0000      -7.342653      -199.8038
  12   2.0000      -7.342648      -199.8036
  13   2.0000      -7.331360      -199.4964
  14   2.0000      -7.331348      -199.4961
  15   2.0000      -7.331335      -199.4958
  16   2.0000      -7.331331      -199.4956
  17   2.0000      -1.175072       -31.9753
  18   2.0000      -1.066566       -29.0227
  19   2.0000      -1.024058       -27.8660
  20   2.0000      -0.989768       -26.9329
  21   2.0000      -0.905361       -24.6361
  22   2.0000      -0.834459       -22.7068
  23   2.0000      -0.812469       -22.1084
  24   2.0000      -0.714658       -19.4468
  25   2.0000      -0.709068       -19.2947
  26   2.0000      -0.640062       -17.4170
  27   2.0000      -0.615577       -16.7507
  28   2.0000      -0.580845       -15.8056
  29   2.0000      -0.567520       -15.4430
  30   2.0000      -0.566895       -15.4260
  31   2.0000      -0.558408       -15.1951
  32   2.0000      -0.519767       -14.1436
  33   2.0000      -0.516445       -14.0532
  34   2.0000      -0.500401       -13.6166
  35   2.0000      -0.468507       -12.7487
  36   2.0000      -0.458901       -12.4873
  37   2.0000      -0.446378       -12.1466
  38   2.0000      -0.442749       -12.0478
  39   2.0000      -0.382288       -10.4026
  40   2.0000      -0.320413        -8.7189
  41   2.0000      -0.317631        -8.6432
  42   0.0000       0.104609         2.8466
  43   0.0000       0.127545         3.4707
  44   0.0000       0.128819         3.5053
  45   0.0000       0.164151         4.4668
  46   0.0000       0.168278         4.5791

MULLIKEN ATOMIC CHARGES
-----------------------
   0 N :   -0.245049
   1 N :   -0.245049
   2 C :    0.086615
   3 C :    0.086613
   4 C :   -0.102348
   5 Cl:   -0.062156
   6 Cl:   -0.062156
   7 C :    0.106063
   8 C :    0.106062
   9 H :    0.066180
  10 H :    0.066180
  11 H :    0.049761
  12 H :    0.049762
  13 H :    0.049761
  14 H :    0.049761
Sum of atomic charges:    0.0000000

LOEWDIN ATOMIC CHARGES
----------------------
   0 N :    0.009142
   1 N :    0.009142
   2 C :   -0.179546
   3 C :   -0.179546
   4 C :   -0.233923
   5 Cl:    0.156815
   6 Cl:    0.156814
   7 C :    0.030774
   8 C :    0.030773
   9 H :    0.042904
  10 H :    0.042904
  11 H :    0.028437
  12 H :    0.028437
  13 H :    0.028437
  14 H :    0.028437

  Mayer bond orders larger than 0.100000
B(  0-N ,  2-C ) :   1.1289 B(  0-N ,  4-C ) :   1.2157 B(  0-N ,  7-C ) :   0.9400
B(  1-N ,  3-C ) :   1.1289 B(  1-N ,  4-C ) :   1.2157 B(  1-N ,  8-C ) :   0.9401
B(  2-C ,  3-C ) :   1.6041 B(  2-C ,  5-Cl) :   1.0770 B(  3-C ,  6-Cl) :   1.0770
B(  7-C ,  9-H ) :   0.9706 B(  7-C , 11-H ) :   0.9787 B(  7-C , 14-H ) :   0.9787
B(  8-C , 10-H ) :   0.9706 B(  8-C , 12-H ) :   0.9787 B(  8-C , 13-H ) :   0.9787

Dispersion correction           -0.002555326
FINAL SINGLE POINT ENERGY     -1223.406156379994

DIPOLE MOMENT
-------------
                                X             Y             Z
Electronic contribution:      0.00000       0.00000     -13.96553
Nuclear contribution   :     -0.00000       0.00000      13.71667
                        -----------------------------------------
Total Dipole Moment    :     -0.00000       0.00000      -0.24887
                        -----------------------------------------
Magnitude (a.u.)       :      0.24887
Magnitude (Debye)      :      0.63257

Dispersion correction in the Hessian             ... Starting D4

VIBRATIONAL FREQUENCIES
-----------------------

Scaling factor for frequencies =  1.000000000  (already applied!)

   0:         0.00 cm**-1
   1:         0.00 cm**-1
   2:         0.00 cm**-1
   3:         0.00 cm**-1
   4:         0.00 cm**-1
   5:         0.00 cm**-1
   6:        92.11 cm**-1
   7:        93.66 cm**-1
   8:       119.67 cm**-1
   9:       168.61 cm**-1
  10:       171.72 cm**-1
  11:       236.17 cm**-1
  12:       266.70 cm**-1
  13:       285.67 cm**-1
  14:       325.02 cm**-1
  15:       440.49 cm**-1
  16:       543.89 cm**-1
  17:       576.30 cm**-1
  18:       630.05 cm**-1
  19:       652.75 cm**-1
  20:       665.84 cm**-1
  21:       893.14 cm**-1
  22:      1078.67 cm**-1
  23:      1088.66 cm**-1
  24:      1114.48 cm**-1
  25:      1146.17 cm**-1
  26:      1147.81 cm**-1
  27:      1182.39 cm**-1
  28:      1383.04 cm**-1
  29:      1397.34 cm**-1
  30:      1423.31 cm**-1
  31:      1432.95 cm**-1
  32:      1465.01 cm**-1
  33:      1465.79 cm**-1
  34:      1466.62 cm**-1
  35:      1482.60 cm**-1
  36:      1490.00 cm**-1
  37:      1494.00 cm**-1
  38:      1701.60 cm**-1
  39:      3083.49 cm**-1
  40:      3084.05 cm**-1
  41:      3182.70 cm**-1
  42:      3182.74 cm**-1
  43:      3226.18 cm**-1
  44:      3226.37 cm**-1

IR SPECTRUM
-----------

 Mode   freq       eps      Int      T**2         TX        TY        TZ
       cm**-1   L/(mol*cm) km/mol    a.u.
----------------------------------------------------------------------------
  6:     92.11   0.000000    0.00  0.000000  (-0.000116  0.000000 -0.000000)
  7:     93.66   0.000184    0.93  0.000612  (-0.024742  0.000000 -0.000000)
  8:    119.67   0.000000    0.00  0.000000  (-0.000006 -0.000000  0.000000)
  9:    168.61   0.000076    0.39  0.000141  (-0.000000 -0.000000  0.011876)
 10:    171.72   0.001119    5.65  0.002033  (-0.045092 -0.000000  0.000000)
 11:    236.17   0.000027    0.13  0.000035  ( 0.000000 -0.005937 -0.000000)
 12:    266.70   0.000991    5.01  0.001160  ( 0.034053 -0.000000 -0.000000)
 13:    285.67   0.001067    5.39  0.001166  (-0.000000 -0.000000 -0.034143)
 14:    325.02   0.000000    0.00  0.000000  ( 0.000000  0.000000  0.000000)
 15:    440.49   0.001257    6.35  0.000891  ( 0.000000  0.029847  0.000000)
 16:    543.89   0.000894    4.52  0.000513  ( 0.000000  0.000000 -0.022642)
 17:    576.30   0.001791    9.05  0.000970  (-0.000000  0.031141  0.000000)
 18:    630.05   0.000440    2.23  0.000218  (-0.014768  0.000000  0.000000)
 19:    652.75   0.000910    4.60  0.000435  ( 0.000000 -0.000000 -0.020859)
 20:    665.84   0.000000    0.00  0.000000  (-0.000000  0.000000 -0.000000)
 21:    893.14   0.000284    1.43  0.000099  (-0.000000  0.009960 -0.000000)
 22:   1078.67   0.000266    1.35  0.000077  (-0.000000 -0.000000  0.008780)
 23:   1088.66   0.000004    0.02  0.000001  ( 0.000000  0.001057  0.000000)
 24:   1114.48   0.007482   37.81  0.002095  (-0.000000  0.000000  0.045773)
 25:   1146.17   0.000000    0.00  0.000000  ( 0.000223 -0.000000 -0.000000)
 26:   1147.81   0.000000    0.00  0.000000  (-0.000000 -0.000000 -0.000000)
 27:   1182.39   0.011314   57.17  0.002986  (-0.000000  0.054644  0.000000)
 28:   1383.04   0.002430   12.28  0.000548  (-0.000000 -0.023414 -0.000001)
 29:   1397.34   0.000556    2.81  0.000124  ( 0.000000  0.000001 -0.011144)
 30:   1423.31   0.003726   18.83  0.000817  ( 0.000000 -0.028584 -0.000000)
 31:   1432.95   0.000640    3.24  0.000139  (-0.000000 -0.000000 -0.011809)
 32:   1465.01   0.006066   30.65  0.001292  ( 0.000000 -0.000000 -0.035946)
 33:   1465.79   0.000000    0.00  0.000000  ( 0.000002 -0.000000 -0.000000)
 34:   1466.62   0.004997   25.26  0.001063  (-0.032609 -0.000000 -0.000000)
 35:   1482.60   0.010733   54.24  0.002259  (-0.000000  0.047531  0.000001)
 36:   1490.00   0.009027   45.62  0.001891  (-0.000000  0.000001 -0.043481)
 37:   1494.00   0.004759   24.05  0.000994  (-0.000000  0.031529 -0.000001)
 38:   1701.60   0.003239   16.37  0.000594  (-0.000000 -0.000000 -0.024374)
 39:   3083.49   0.011768   59.47  0.001191  ( 0.000001 -0.034510  0.000011)
 40:   3084.05   0.000148    0.75  0.000015  (-0.000000  0.000094  0.003875)
 41:   3182.70   0.000013    0.06  0.000001  ( 0.001119 -0.000000 -0.000000)
 42:   3182.74   0.003711   18.75  0.000364  ( 0.019075  0.000001  0.000000)
 43:   3226.18   0.000087    0.44  0.000008  (-0.000000  0.000004  0.002900)
 44:   3226.37   0.000061    0.31  0.000006  ( 0.000001  0.002432 -0.000005)

--------------------------
THERMOCHEMISTRY AT 298.15K
--------------------------

Temperature         ... 298.15 K
Pressure            ... 1.00 atm
Total Mass          ... 165.02 AMU

Throughout the following assumptions are being made:
  (1) The electronic state is orbitally nondegenerate
  (2) There are no thermally accessible electronically excited states
  (3) Hindered rotations indicated by low frequency modes are not
      treated as such but are treated as vibrations and this may
      cause some error
  (4) All equations used are the standard statistical mechanics
      equations for an ideal gas
  (5) All vibrations are strictly harmonic

freq.      92.11  E(vib)   ...       0.47
freq.      93.66  E(vib)   ...       0.47
freq.     119.67  E(vib)   ...       0.44
freq.     168.61  E(vib)   ...       0.38
freq.     171.72  E(vib)   ...       0.38
freq.     236.17  E(vib)   ...       0.32
freq.     266.70  E(vib)   ...       0.29
freq.     285.67  E(vib)   ...       0.28
freq.     325.02  E(vib)   ...       0.24
freq.     440.49  E(vib)   ...       0.17
freq.     543.89  E(vib)   ...       0.12
freq.     576.30  E(vib)   ...       0.11
freq.     630.05  E(vib)   ...       0.09
freq.     652.75  E(vib)   ...       0.08
freq.     665.84  E(vib)   ...       0.08
freq.     893.14  E(vib)   ...       0.03
freq.    1078.67  E(vib)   ...       0.02
freq.    1088.66  E(vib)   ...       0.02
freq.    1114.48  E(vib)   ...       0.01
freq.    1146.17  E(vib)   ...       0.01
freq.    1147.81  E(vib)   ...       0.01
freq.    1182.39  E(vib)   ...       0.01
freq.    1383.04  E(vib)   ...       0.01
freq.    1397.34  E(vib)   ...       0.00
freq.    1423.31  E(vib)   ...       0.00
freq.    1432.95  E(vib)   ...       0.00
freq.    1465.01  E(vib)   ...       0.00
freq.    1465.79  E(vib)   ...       0.00
freq.    1466.62  E(vib)   ...       0.00
freq.    1482.60  E(vib)   ...       0.00
freq.    1490.00  E(vib)   ...       0.00
freq.    1494.00  E(vib)   ...       0.00
freq.    1701.60  E(vib)   ...       0.00
freq.    3083.49  E(vib)   ...       0.00
freq.    3084.05  E(vib)   ...       0.00
freq.    3182.70  E(vib)   ...       0.00
freq.    3182.74  E(vib)   ...       0.00
freq.    3226.18  E(vib)   ...       0.00
freq.    3226.37  E(vib)   ...       0.00

------------
INNER ENERGY
------------

The inner energy is: U= E(el) + E(ZPE) + E(vib) + E(rot) + E(trans)
    E(el)   - is the total energy from the electronic structure calculation
              = E(kin-el) + E(nuc-el) + E(el-el) + E(nuc-nuc)
    E(ZPE)  - the the zero temperature vibrational energy from the frequency calculation
    E(vib)  - the the finite temperature correction to E(ZPE) due to population
              of excited vibrational states
    E(rot)  - is the rotational thermal energy
    E(trans)- is the translational thermal energy

Summary of contributions to the inner energy U:
Electronic energy                ...  -1223.40615638 Eh
Zero point energy                ...      0.10959756 Eh      68.77 kcal/mol
Thermal vibrational correction   ...      0.00650888 Eh       4.08 kcal/mol
Thermal rotational correction    ...      0.00141627 Eh       0.89 kcal/mol
Thermal translational correction ...      0.00141627 Eh       0.89 kcal/mol
-----------------------------------------------------------------------
Total thermal energy                  -1223.28721739 Eh

Summary of corrections to the electronic energy:
(perhaps to be used in another calculation)
Total thermal correction                  0.00934142 Eh       5.86 kcal/mol
Non-thermal (ZPE) correction              0.10959756 Eh      68.77 kcal/mol
-----------------------------------------------------------------------
Total correction                          0.11893899 Eh      74.64 kcal/mol

--------
ENTHALPY
--------

The enthalpy is H = U + kB*T
                kB is Boltzmann's constant
Total free energy                 ...  -1223.28721739 Eh
Thermal Enthalpy correction       ...      0.00094421 Eh       0.59 kcal/mol
-----------------------------------------------------------------------
Total Enthalpy                    ...  -1223.28627319 Eh

Note: Rotational entropy computed according to Herzberg
Infrared and Raman Spectra, Chapter V,1, Van Nostrand Reinhold, 1945
Point Group:  C2v, Symmetry Number:   2
Rotational constants in cm-1:     0.051589     0.036741     0.021637

Vibrational entropy computed according to the QRRHO of S. Grimme
Chem.Eur.J. 2012 18 9955

-------
ENTROPY
-------

The entropy contributions are T*S = T*(S(el)+S(vib)+S(rot)+S(trans))
     S(el)   - electronic entropy
     S(vib)  - vibrational entropy
     S(rot)  - rotational entropy
     S(trans)- translational entropy
The entropies will be listed as multiplied by the temperature to get
units of energy

Electronic entropy                ...      0.00000000 Eh      0.00 kcal/mol
Vibrational entropy               ...      0.01146095 Eh      7.19 kcal/mol
Rotational entropy                ...      0.01362526 Eh      8.55 kcal/mol
Translational entropy             ...      0.01958067 Eh     12.29 kcal/mol
-----------------------------------------------------------------------
Final entropy term                ...      0.04466688 Eh     28.03 kcal/mol

In case the symmetry of your molecule has not been determined correctly
or in case you have a reason to use a different symmetry number we print
out the resulting rotational entropy values for sn=1,12 :
 --------------------------------------------------------
|  sn= 1 | S(rot)=       0.01427971 Eh      8.96 kcal/mol|
|  sn= 2 | S(rot)=       0.01362526 Eh      8.55 kcal/mol|
|  sn= 3 | S(rot)=       0.01324242 Eh      8.31 kcal/mol|
|  sn= 4 | S(rot)=       0.01297080 Eh      8.14 kcal/mol|
|  sn= 5 | S(rot)=       0.01276011 Eh      8.01 kcal/mol|
|  sn= 6 | S(rot)=       0.01258797 Eh      7.90 kcal/mol|
|  sn= 7 | S(rot)=       0.01244242 Eh      7.81 kcal/mol|
|  sn= 8 | S(rot)=       0.01231634 Eh      7.73 kcal/mol|
|  sn= 9 | S(rot)=       0.01220513 Eh      7.66 kcal/mol|
|  sn=10 | S(rot)=       0.01210565 Eh      7.60 kcal/mol|
|  sn=11 | S(rot)=       0.01201566 Eh      7.54 kcal/mol|
|  sn=12 | S(rot)=       0.01193351 Eh      7.49 kcal/mol|
 --------------------------------------------------------

-------------------
GIBBS FREE ENERGY
-------------------

The Gibbs free energy is G = H - T*S

Total enthalpy                    ...  -1223.28627319 Eh
Total entropy correction          ...     -0.04466688 Eh    -28.03 kcal/mol
-----------------------------------------------------------------------
Final Gibbs free energy         ...  -1223.33094007 Eh

For completeness - the Gibbs free energy minus the electronic energy
G-E(el)                           ...      0.07521631 Eh     47.20 kcal/mol

                             ****ORCA TERMINATED NORMALLY****
TOTAL RUN TIME: 0 days 0 hours 10 minutes 19 seconds 113 msec
