                         Program Version 5.0.4 -  RELEASE  -
|  1> # ORCA 5.0.4 - 4+.inp # write input file
|  2> # Basic Mode
|  3> #
|  4> ! Freq wB97X Def2-SVP D4 SlowConv TightSCF DEFGRID2 Def2/J RIJCOSX
|  5>
|  6>
|  7>
|  8> %maxcore 4500
|  9>
| 10> %geom
| 11> Maxiter 150
| 12> END
| 13>
| 14> * xyzfile 1 1 4+.xyz
| 15>
| 16>                          ****END OF INPUT****

CARTESIAN COORDINATES (ANGSTROEM)
---------------------------------
  C      1.253015   -0.198578   -0.585770
  C      0.269589   -1.119170   -0.781927
  N      0.702982    0.827807    0.151649
  N     -0.862504   -0.638381   -0.159720
  C     -0.572018    0.535621    0.393942
  H      2.292199   -0.192804   -0.909670
  H      0.284097   -2.070071   -1.311411
  C      1.397421    2.057505    0.590973
  C     -2.182254   -1.303648   -0.111854
  H      0.648379    2.604577    1.183378
  H     -2.809513   -0.634603    0.496329
  H     -1.266152    1.158273    0.958979
  C      1.789779    2.892797   -0.620012
  C     -2.766027   -1.403662   -1.514155
  C     -2.060971   -2.651218    0.585411
  C      2.579443    1.700527    1.480403
  H      2.531700    2.364613   -1.239448
  H     -2.151791   -2.058529   -2.152297
  H     -1.437007   -3.345042    0.000281
  H      3.352229    1.157191    0.914254
  H      0.911950    3.128522   -1.239436
  H     -2.835882   -0.412214   -1.985058
  H     -1.624407   -2.540117    1.588840
  H      2.262385    1.082681    2.333275
  H      2.239303    3.836543   -0.279102
  H     -3.776055   -1.834253   -1.456753
  H     -3.060628   -3.097552    0.686977
  H      3.030507    2.624924    1.868701

 Total Charge           Charge          ....    1
 Multiplicity           Mult            ....    1
 Number of Electrons    NEL             ....   84
 Basis Dimension        Dim             ....  239

ORBITAL ENERGIES
----------------

  NO   OCC          E(Eh)            E(eV)
   0   2.0000     -14.655549      -398.7978
   1   2.0000     -14.655525      -398.7971
   2   2.0000     -10.532687      -286.6090
   3   2.0000     -10.481636      -285.2198
   4   2.0000     -10.481062      -285.2042
   5   2.0000     -10.477088      -285.0960
   6   2.0000     -10.477041      -285.0948
   7   2.0000     -10.407083      -283.1911
   8   2.0000     -10.407069      -283.1907
   9   2.0000     -10.406913      -283.1865
  10   2.0000     -10.406905      -283.1863
  11   2.0000      -1.362315       -37.0705
  12   2.0000      -1.240677       -33.7605
  13   2.0000      -1.105259       -30.0756
  14   2.0000      -1.067304       -29.0428
  15   2.0000      -1.050733       -28.5919
  16   2.0000      -0.954970       -25.9860
  17   2.0000      -0.954234       -25.9660
  18   2.0000      -0.936203       -25.4754
  19   2.0000      -0.932802       -25.3828
  20   2.0000      -0.882685       -24.0191
  21   2.0000      -0.849118       -23.1057
  22   2.0000      -0.808164       -21.9913
  23   2.0000      -0.772230       -21.0135
  24   2.0000      -0.759347       -20.6629
  25   2.0000      -0.735742       -20.0205
  26   2.0000      -0.728790       -19.8314
  27   2.0000      -0.711155       -19.3515
  28   2.0000      -0.699188       -19.0259
  29   2.0000      -0.698366       -19.0035
  30   2.0000      -0.693489       -18.8708
  31   2.0000      -0.653812       -17.7911
  32   2.0000      -0.636166       -17.3110
  33   2.0000      -0.635113       -17.2823
  34   2.0000      -0.628607       -17.1053
  35   2.0000      -0.622929       -16.9508
  36   2.0000      -0.605200       -16.4683
  37   2.0000      -0.597058       -16.2468
  38   2.0000      -0.596270       -16.2253
  39   2.0000      -0.592386       -16.1197
  40   2.0000      -0.554746       -15.0954
  41   2.0000      -0.521891       -14.2014
  42   0.0000      -0.084861        -2.3092
  43   0.0000      -0.051327        -1.3967
  44   0.0000      -0.000922        -0.0251
  45   0.0000       0.009098         0.2476
  46   0.0000       0.017621         0.4795

MULLIKEN ATOMIC CHARGES
-----------------------
   0 C :    0.071096
   1 C :    0.070856
   2 N :   -0.184252
   3 N :   -0.184139
   4 C :    0.197775
   5 H :    0.098049
   6 H :    0.098036
   7 C :   -0.086096
   8 C :   -0.086218
   9 H :    0.062809
  10 H :    0.062595
  11 H :    0.117184
  12 C :   -0.000307
  13 C :   -0.000998
  14 C :   -0.005225
  15 C :   -0.006263
  16 H :    0.050964
  17 H :    0.051038
  18 H :    0.050825
  19 H :    0.051001
  20 H :    0.059703
  21 H :    0.060080
  22 H :    0.061760
  23 H :    0.062106
  24 H :    0.081797
  25 H :    0.081678
  26 H :    0.082089
  27 H :    0.082056
Sum of atomic charges:    1.0000000

LOEWDIN ATOMIC CHARGES
----------------------
   0 C :    0.024751
   1 C :    0.024716
   2 N :    0.099878
   3 N :    0.100003
   4 C :    0.105977
   5 H :    0.057114
   6 H :    0.057060
   7 C :    0.035121
   8 C :    0.035058
   9 H :    0.040718
  10 H :    0.040654
  11 H :    0.059332
  12 C :   -0.049649
  13 C :   -0.049723
  14 C :   -0.049868
  15 C :   -0.049981
  16 H :    0.036424
  17 H :    0.036432
  18 H :    0.036097
  19 H :    0.036107
  20 H :    0.039268
  21 H :    0.039420
  22 H :    0.039995
  23 H :    0.040109
  24 H :    0.053577
  25 H :    0.053599
  26 H :    0.053862
  27 H :    0.053951

  Mayer bond orders larger than 0.100000
B(  0-C ,  1-C ) :   1.6116 B(  0-C ,  2-N ) :   1.1748 B(  0-C ,  5-H ) :   0.9828
B(  1-C ,  3-N ) :   1.1747 B(  1-C ,  6-H ) :   0.9828 B(  2-N ,  4-C ) :   1.3568
B(  2-N ,  7-C ) :   0.8372 B(  3-N ,  4-C ) :   1.3570 B(  3-N ,  8-C ) :   0.8374
B(  4-C , 11-H ) :   0.9713 B(  7-C ,  9-H ) :   0.9401 B(  7-C , 12-C ) :   1.0638
B(  7-C , 15-C ) :   1.0631 B(  8-C , 10-H ) :   0.9400 B(  8-C , 13-C ) :   1.0637
B(  8-C , 14-C ) :   1.0632 B( 12-C , 16-H ) :   0.9621 B( 12-C , 20-H ) :   0.9667
B( 12-C , 24-H ) :   0.9682 B( 13-C , 17-H ) :   0.9623 B( 13-C , 21-H ) :   0.9667
B( 13-C , 25-H ) :   0.9682 B( 14-C , 18-H ) :   0.9624 B( 14-C , 22-H ) :   0.9670
B( 14-C , 26-H ) :   0.9676 B( 15-C , 19-H ) :   0.9625 B( 15-C , 23-H ) :   0.9671
B( 15-C , 27-H ) :   0.9675

Dispersion correction           -0.003981711
FINAL SINGLE POINT ENERGY      -462.059786122221

DIPOLE MOMENT
-------------
                                X             Y             Z
Electronic contribution:      0.40053      -0.40726      -0.10981
Nuclear contribution   :     -0.57661       0.56310       0.26423
                        -----------------------------------------
Total Dipole Moment    :     -0.17608       0.15584       0.15442
                        -----------------------------------------
Magnitude (a.u.)       :      0.28131
Magnitude (Debye)      :      0.71503

Dispersion correction in the Hessian             ... Starting D4

VIBRATIONAL FREQUENCIES
-----------------------

Scaling factor for frequencies =  1.000000000  (already applied!)

   0:         0.00 cm**-1
   1:         0.00 cm**-1
   2:         0.00 cm**-1
   3:         0.00 cm**-1
   4:         0.00 cm**-1
   5:         0.00 cm**-1
   6:        26.89 cm**-1
   7:        34.82 cm**-1
   8:       122.20 cm**-1
   9:       150.83 cm**-1
  10:       156.15 cm**-1
  11:       247.51 cm**-1
  12:       264.98 cm**-1
  13:       270.62 cm**-1
  14:       274.63 cm**-1
  15:       297.40 cm**-1
  16:       307.72 cm**-1
  17:       359.93 cm**-1
  18:       397.36 cm**-1
  19:       441.51 cm**-1
  20:       457.07 cm**-1
  21:       553.35 cm**-1
  22:       631.60 cm**-1
  23:       676.25 cm**-1
  24:       683.58 cm**-1
  25:       689.80 cm**-1
  26:       775.26 cm**-1
  27:       882.57 cm**-1
  28:       914.35 cm**-1
  29:       919.14 cm**-1
  30:       920.43 cm**-1
  31:       943.21 cm**-1
  32:       946.33 cm**-1
  33:       967.80 cm**-1
  34:       968.12 cm**-1
  35:      1038.06 cm**-1
  36:      1045.85 cm**-1
  37:      1093.60 cm**-1
  38:      1113.02 cm**-1
  39:      1117.99 cm**-1
  40:      1173.82 cm**-1
  41:      1176.11 cm**-1
  42:      1176.33 cm**-1
  43:      1202.24 cm**-1
  44:      1223.19 cm**-1
  45:      1269.75 cm**-1
  46:      1347.57 cm**-1
  47:      1349.55 cm**-1
  48:      1351.22 cm**-1
  49:      1370.04 cm**-1
  50:      1405.25 cm**-1
  51:      1412.29 cm**-1
  52:      1412.98 cm**-1
  53:      1422.68 cm**-1
  54:      1426.69 cm**-1
  55:      1459.80 cm**-1
  56:      1460.60 cm**-1
  57:      1467.54 cm**-1
  58:      1470.30 cm**-1
  59:      1476.36 cm**-1
  60:      1478.96 cm**-1
  61:      1484.41 cm**-1
  62:      1486.01 cm**-1
  63:      1499.40 cm**-1
  64:      1508.92 cm**-1
  65:      1652.23 cm**-1
  66:      1653.39 cm**-1
  67:      3074.21 cm**-1
  68:      3074.48 cm**-1
  69:      3075.84 cm**-1
  70:      3076.05 cm**-1
  71:      3127.91 cm**-1
  72:      3129.56 cm**-1
  73:      3178.47 cm**-1
  74:      3178.97 cm**-1
  75:      3181.53 cm**-1
  76:      3181.91 cm**-1
  77:      3192.75 cm**-1
  78:      3193.13 cm**-1
  79:      3195.07 cm**-1
  80:      3195.32 cm**-1
  81:      3294.40 cm**-1
  82:      3299.27 cm**-1
  83:      3317.30 cm**-1

IR SPECTRUM
-----------

 Mode   freq       eps      Int      T**2         TX        TY        TZ
       cm**-1   L/(mol*cm) km/mol    a.u.
----------------------------------------------------------------------------
  6:     26.89   0.000003    0.01  0.000032  ( 0.002120 -0.002585  0.004588)
  7:     34.82   0.000001    0.00  0.000009  ( 0.000179 -0.001814  0.002314)
  8:    122.20   0.000057    0.29  0.000146  ( 0.003745 -0.005662  0.010009)
  9:    150.83   0.000001    0.00  0.000002  ( 0.000694 -0.001083 -0.000446)
 10:    156.15   0.000060    0.30  0.000120  ( 0.006929 -0.006329 -0.005668)
 11:    247.51   0.000004    0.02  0.000005  (-0.002073  0.000538 -0.000420)
 12:    264.98   0.000003    0.01  0.000003  ( 0.000525  0.001688 -0.000331)
 13:    270.62   0.000007    0.03  0.000008  (-0.002382  0.000634  0.001287)
 14:    274.63   0.000014    0.07  0.000015  (-0.003367 -0.002031  0.000095)
 15:    297.40   0.000031    0.16  0.000033  (-0.001505  0.004249  0.003505)
 16:    307.72   0.000039    0.20  0.000039  ( 0.004969  0.003826 -0.000138)
 17:    359.93   0.000030    0.15  0.000026  (-0.003471 -0.003688 -0.000266)
 18:    397.36   0.000348    1.76  0.000274  ( 0.004984 -0.007535  0.013856)
 19:    441.51   0.000001    0.00  0.000001  ( 0.000590 -0.000093  0.000520)
 20:    457.07   0.000047    0.24  0.000032  (-0.003669  0.003237  0.002874)
 21:    553.35   0.000177    0.90  0.000100  (-0.007277 -0.006755 -0.001146)
 22:    631.60   0.000004    0.02  0.000002  (-0.000571  0.001202 -0.000151)
 23:    676.25   0.001100    5.56  0.000508  ( 0.015980  0.015634  0.002802)
 24:    683.58   0.008102   40.94  0.003699  (-0.016867  0.027959 -0.051307)
 25:    689.80   0.000138    0.70  0.000063  ( 0.003051 -0.002903  0.006698)
 26:    775.26   0.004724   23.87  0.001901  ( 0.011410 -0.020251  0.036894)
 27:    882.57   0.003171   16.02  0.001121  ( 0.009030 -0.015634  0.028199)
 28:    914.35   0.000064    0.32  0.000022  ( 0.003411  0.003022  0.001049)
 29:    919.14   0.000034    0.17  0.000012  ( 0.001097 -0.001400  0.002901)
 30:    920.43   0.000242    1.22  0.000082  (-0.005722  0.004997  0.004941)
 31:    943.21   0.000198    1.00  0.000065  (-0.002250  0.003860 -0.006738)
 32:    946.33   0.000277    1.40  0.000091  (-0.002306  0.004518 -0.008101)
 33:    967.80   0.000076    0.39  0.000025  ( 0.000767 -0.002839  0.003995)
 34:    968.12   0.000276    1.40  0.000089  (-0.002909  0.004640 -0.007681)
 35:   1038.06   0.001893    9.56  0.000569  (-0.017644 -0.015766 -0.003016)
 36:   1045.85   0.000302    1.53  0.000090  (-0.005381  0.005749  0.005307)
 37:   1093.60   0.000025    0.13  0.000007  ( 0.000102  0.002305  0.001396)
 38:   1113.02   0.002294   11.59  0.000643  (-0.016317  0.014216  0.013224)
 39:   1117.99   0.001748    8.84  0.000488  (-0.015013  0.012030  0.010860)
 40:   1173.82   0.000317    1.60  0.000084  ( 0.005551 -0.000176  0.007318)
 41:   1176.11   0.006446   32.58  0.001710  ( 0.031716  0.020382  0.017003)
 42:   1176.33   0.009327   47.14  0.002474  ( 0.031682  0.038198 -0.003396)
 43:   1202.24   0.000021    0.11  0.000005  (-0.000565  0.002179  0.000583)
 44:   1223.19   0.016181   81.77  0.004128  ( 0.046292  0.043560  0.009365)
 45:   1269.75   0.006237   31.52  0.001533  (-0.027993 -0.026755 -0.005778)
 46:   1347.57   0.000039    0.20  0.000009  ( 0.000477  0.001150  0.002722)
 47:   1349.55   0.000203    1.03  0.000047  ( 0.004747 -0.002378 -0.004338)
 48:   1351.22   0.000424    2.14  0.000098  ( 0.006010 -0.007186 -0.003204)
 49:   1370.04   0.008579   43.36  0.001954  ( 0.031943  0.029998  0.005820)
 50:   1405.25   0.000948    4.79  0.000210  ( 0.009295 -0.008852 -0.006758)
 51:   1412.29   0.000011    0.06  0.000002  ( 0.000905  0.000367 -0.001218)
 52:   1412.98   0.007607   38.45  0.001680  ( 0.013604 -0.017920  0.034263)
 53:   1422.68   0.004101   20.72  0.000900  ( 0.022544  0.019775  0.000495)
 54:   1426.69   0.002300   11.62  0.000503  (-0.012026  0.014231  0.012484)
 55:   1459.80   0.000019    0.09  0.000004  ( 0.001644 -0.000910  0.000672)
 56:   1460.60   0.000007    0.04  0.000001  ( 0.000084  0.000093  0.001212)
 57:   1467.54   0.000672    3.39  0.000143  (-0.004192  0.006144 -0.009352)
 58:   1470.30   0.000683    3.45  0.000145  ( 0.004402 -0.008314  0.007518)
 59:   1476.36   0.002722   13.75  0.000575  (-0.021134  0.003640  0.010741)
 60:   1478.96   0.002211   11.17  0.000467  (-0.002327 -0.018155 -0.011469)
 61:   1484.41   0.006399   32.34  0.001345  ( 0.023336 -0.019610 -0.020401)
 62:   1486.01   0.001313    6.64  0.000276  (-0.009023 -0.013370 -0.003952)
 63:   1499.40   0.000785    3.97  0.000163  ( 0.009657  0.008275  0.001273)
 64:   1508.92   0.000091    0.46  0.000019  (-0.002934  0.002390  0.002104)
 65:   1652.23   0.002256   11.40  0.000426  (-0.013848  0.010988  0.010656)
 66:   1653.39   0.028886  145.98  0.005452  (-0.053128 -0.050161 -0.010648)
 67:   3074.21   0.000707    3.57  0.000072  (-0.000696  0.002825 -0.007956)
 68:   3074.48   0.000910    4.60  0.000092  ( 0.001830 -0.003670  0.008691)
 69:   3075.84   0.000360    1.82  0.000037  ( 0.003202 -0.004724 -0.001998)
 70:   3076.05   0.000580    2.93  0.000059  ( 0.005935 -0.004854 -0.000305)
 71:   3127.91   0.000640    3.23  0.000064  (-0.005527  0.003774  0.004364)
 72:   3129.56   0.000704    3.56  0.000070  ( 0.004735 -0.005100 -0.004669)
 73:   3178.47   0.000461    2.33  0.000045  ( 0.002447 -0.004051  0.004784)
 74:   3178.97   0.000511    2.58  0.000050  (-0.003605  0.004128 -0.004487)
 75:   3181.53   0.001368    6.91  0.000134  ( 0.005852 -0.007381 -0.006740)
 76:   3181.91   0.002298   11.61  0.000225  ( 0.010128 -0.006801 -0.008750)
 77:   3192.75   0.000446    2.25  0.000044  (-0.002549  0.001856 -0.005798)
 78:   3193.13   0.000519    2.62  0.000051  ( 0.002001 -0.003460  0.005894)
 79:   3195.07   0.000506    2.56  0.000049  ( 0.003221  0.006180  0.000924)
 80:   3195.32   0.000381    1.93  0.000037  ( 0.005422  0.002794 -0.000204)
 81:   3294.40   0.005591   28.25  0.000530  ( 0.014630 -0.013202 -0.011884)
 82:   3299.27   0.003008   15.20  0.000284  (-0.012140 -0.011454 -0.002432)
 83:   3317.30   0.002593   13.10  0.000244  ( 0.010069 -0.008877 -0.007984)

--------------------------
THERMOCHEMISTRY AT 298.15K
--------------------------

Temperature         ... 298.15 K
Pressure            ... 1.00 atm
Total Mass          ... 153.25 AMU

Throughout the following assumptions are being made:
  (1) The electronic state is orbitally nondegenerate
  (2) There are no thermally accessible electronically excited states
  (3) Hindered rotations indicated by low frequency modes are not
      treated as such but are treated as vibrations and this may
      cause some error
  (4) All equations used are the standard statistical mechanics
      equations for an ideal gas
  (5) All vibrations are strictly harmonic

freq.      26.89  E(vib)   ...       0.55
freq.      34.82  E(vib)   ...       0.54
freq.     122.20  E(vib)   ...       0.43
freq.     150.83  E(vib)   ...       0.40
freq.     156.15  E(vib)   ...       0.40
freq.     247.51  E(vib)   ...       0.31
freq.     264.98  E(vib)   ...       0.29
freq.     270.62  E(vib)   ...       0.29
freq.     274.63  E(vib)   ...       0.28
freq.     297.40  E(vib)   ...       0.27
freq.     307.72  E(vib)   ...       0.26
freq.     359.93  E(vib)   ...       0.22
freq.     397.36  E(vib)   ...       0.20
freq.     441.51  E(vib)   ...       0.17
freq.     457.07  E(vib)   ...       0.16
freq.     553.35  E(vib)   ...       0.12
freq.     631.60  E(vib)   ...       0.09
freq.     676.25  E(vib)   ...       0.08
freq.     683.58  E(vib)   ...       0.07
freq.     689.80  E(vib)   ...       0.07
freq.     775.26  E(vib)   ...       0.05
freq.     882.57  E(vib)   ...       0.04
freq.     914.35  E(vib)   ...       0.03
freq.     919.14  E(vib)   ...       0.03
freq.     920.43  E(vib)   ...       0.03
freq.     943.21  E(vib)   ...       0.03
freq.     946.33  E(vib)   ...       0.03
freq.     967.80  E(vib)   ...       0.03
freq.     968.12  E(vib)   ...       0.03
freq.    1038.06  E(vib)   ...       0.02
freq.    1045.85  E(vib)   ...       0.02
freq.    1093.60  E(vib)   ...       0.02
freq.    1113.02  E(vib)   ...       0.01
freq.    1117.99  E(vib)   ...       0.01
freq.    1173.82  E(vib)   ...       0.01
freq.    1176.11  E(vib)   ...       0.01
freq.    1176.33  E(vib)   ...       0.01
freq.    1202.24  E(vib)   ...       0.01
freq.    1223.19  E(vib)   ...       0.01
freq.    1269.75  E(vib)   ...       0.01
freq.    1347.57  E(vib)   ...       0.01
freq.    1349.55  E(vib)   ...       0.01
freq.    1351.22  E(vib)   ...       0.01
freq.    1370.04  E(vib)   ...       0.01
freq.    1405.25  E(vib)   ...       0.00
freq.    1412.29  E(vib)   ...       0.00
freq.    1412.98  E(vib)   ...       0.00
freq.    1422.68  E(vib)   ...       0.00
freq.    1426.69  E(vib)   ...       0.00
freq.    1459.80  E(vib)   ...       0.00
freq.    1460.60  E(vib)   ...       0.00
freq.    1467.54  E(vib)   ...       0.00
freq.    1470.30  E(vib)   ...       0.00
freq.    1476.36  E(vib)   ...       0.00
freq.    1478.96  E(vib)   ...       0.00
freq.    1484.41  E(vib)   ...       0.00
freq.    1486.01  E(vib)   ...       0.00
freq.    1499.40  E(vib)   ...       0.00
freq.    1508.92  E(vib)   ...       0.00
freq.    1652.23  E(vib)   ...       0.00
freq.    1653.39  E(vib)   ...       0.00
freq.    3074.21  E(vib)   ...       0.00
freq.    3074.48  E(vib)   ...       0.00
freq.    3075.84  E(vib)   ...       0.00
freq.    3076.05  E(vib)   ...       0.00
freq.    3127.91  E(vib)   ...       0.00
freq.    3129.56  E(vib)   ...       0.00
freq.    3178.47  E(vib)   ...       0.00
freq.    3178.97  E(vib)   ...       0.00
freq.    3181.53  E(vib)   ...       0.00
freq.    3181.91  E(vib)   ...       0.00
freq.    3192.75  E(vib)   ...       0.00
freq.    3193.13  E(vib)   ...       0.00
freq.    3195.07  E(vib)   ...       0.00
freq.    3195.32  E(vib)   ...       0.00
freq.    3294.40  E(vib)   ...       0.00
freq.    3299.27  E(vib)   ...       0.00
freq.    3317.30  E(vib)   ...       0.00

------------
INNER ENERGY
------------

The inner energy is: U= E(el) + E(ZPE) + E(vib) + E(rot) + E(trans)
    E(el)   - is the total energy from the electronic structure calculation
              = E(kin-el) + E(nuc-el) + E(el-el) + E(nuc-nuc)
    E(ZPE)  - the the zero temperature vibrational energy from the frequency calculation
    E(vib)  - the the finite temperature correction to E(ZPE) due to population
              of excited vibrational states
    E(rot)  - is the rotational thermal energy
    E(trans)- is the translational thermal energy

Summary of contributions to the inner energy U:
Electronic energy                ...   -462.05978612 Eh
Zero point energy                ...      0.25623399 Eh     160.79 kcal/mol
Thermal vibrational correction   ...      0.00913525 Eh       5.73 kcal/mol
Thermal rotational correction    ...      0.00141627 Eh       0.89 kcal/mol
Thermal translational correction ...      0.00141627 Eh       0.89 kcal/mol
-----------------------------------------------------------------------
Total thermal energy                   -461.79158434 Eh

Summary of corrections to the electronic energy:
(perhaps to be used in another calculation)
Total thermal correction                  0.01196779 Eh       7.51 kcal/mol
Non-thermal (ZPE) correction              0.25623399 Eh     160.79 kcal/mol
-----------------------------------------------------------------------
Total correction                          0.26820178 Eh     168.30 kcal/mol

--------
ENTHALPY
--------

The enthalpy is H = U + kB*T
                kB is Boltzmann's constant
Total free energy                 ...   -461.79158434 Eh
Thermal Enthalpy correction       ...      0.00094421 Eh       0.59 kcal/mol
-----------------------------------------------------------------------
Total Enthalpy                    ...   -461.79064013 Eh

Note: Only C1 symmetry has been detected, increase convergence thresholds
      if your molecule has a higher symmetry. Symmetry factor of 1.0 is
      used for the rotational entropy correction.

Note: Rotational entropy computed according to Herzberg
Infrared and Raman Spectra, Chapter V,1, Van Nostrand Reinhold, 1945
Point Group:  C1, Symmetry Number:   1
Rotational constants in cm-1:     0.089660     0.018409     0.017771

Vibrational entropy computed according to the QRRHO of S. Grimme
Chem.Eur.J. 2012 18 9955

-------
ENTROPY
-------

The entropy contributions are T*S = T*(S(el)+S(vib)+S(rot)+S(trans))
     S(el)   - electronic entropy
     S(vib)  - vibrational entropy
     S(rot)  - rotational entropy

                             ****ORCA TERMINATED NORMALLY****
TOTAL RUN TIME: 0 days 0 hours 30 minutes 47 seconds 72 msec
