                         Program Version 5.0.4 -  RELEASE  -
|  1> ! SP wB97X D4 def2-SVP def2/J defgrid2
|  2> %maxcore 3000
|  3> %PAL NPROCS 4 END
|  4> * xyz 0 1
|  5> C 0.0 2.4565 0.5532
|  6> C -0.0 -2.4565 0.5532
|  7> N 0.0 1.0633 0.0996
|  8> N 0.0 -1.0633 0.0996
|  9> C 0.0 0.6781 -1.2312
| 10> C 0.0 -0.6781 -1.2312
| 11> C 0.0 0.0 0.9467
| 12> C 1.268 3.1766 0.1076
| 13> C -1.268 3.1766 0.1076
| 14> C -1.268 -3.1766 0.1076
| 15> C 1.268 -3.1766 0.1076
| 16> H 0.0 1.3852 -2.0596
| 17> H 0.0 -1.3852 -2.0596
| 18> H 0.0 2.3813 1.6511
| 19> H -0.0 -2.3813 1.6511
| 20> H 1.3124 3.2621 -0.9905
| 21> H -1.3124 3.2621 -0.9905
| 22> H -1.3124 -3.2621 -0.9905
| 23> H 1.3124 -3.2621 -0.9905
| 24> H 1.2924 4.1938 0.5266
| 25> H -1.2924 4.1938 0.5267
| 26> H -1.2924 -4.1938 0.5266
| 27> H 1.2924 -4.1938 0.5267
| 28> H 2.1645 2.6383 0.451
| 29> H -2.1645 2.6383 0.451
| 30> H -2.1645 -2.6383 0.451
| 31> H 2.1645 -2.6383 0.451
| 32> **                         ****END OF INPUT****

CARTESIAN COORDINATES (ANGSTROEM)
---------------------------------
  C      0.000000    2.456500    0.553200
  C     -0.000000   -2.456500    0.553200
  N      0.000000    1.063300    0.099600
  N      0.000000   -1.063300    0.099600
  C      0.000000    0.678100   -1.231200
  C      0.000000   -0.678100   -1.231200
  C      0.000000    0.000000    0.946700
  C      1.268000    3.176600    0.107600
  C     -1.268000    3.176600    0.107600
  C     -1.268000   -3.176600    0.107600
  C      1.268000   -3.176600    0.107600
  H      0.000000    1.385200   -2.059600
  H      0.000000   -1.385200   -2.059600
  H      0.000000    2.381300    1.651100
  H     -0.000000   -2.381300    1.651100
  H      1.312400    3.262100   -0.990500
  H     -1.312400    3.262100   -0.990500
  H     -1.312400   -3.262100   -0.990500
  H      1.312400   -3.262100   -0.990500
  H      1.292400    4.193800    0.526600
  H     -1.292400    4.193800    0.526700
  H     -1.292400   -4.193800    0.526600
  H      1.292400   -4.193800    0.526700
  H      2.164500    2.638300    0.451000
  H     -2.164500    2.638300    0.451000
  H     -2.164500   -2.638300    0.451000
  H      2.164500   -2.638300    0.451000

 Total Charge           Charge          ....    0
 Multiplicity           Mult            ....    1
 Number of Electrons    NEL             ....   84
 Basis Dimension        Dim             ....  234

ORBITAL ENERGIES
----------------

  NO   OCC          E(Eh)            E(eV)
   0   2.0000     -14.438127      -392.8814
   1   2.0000     -14.438127      -392.8814
   2   2.0000     -10.307472      -280.4806
   3   2.0000     -10.307437      -280.4796
   4   2.0000     -10.292597      -280.0758
   5   2.0000     -10.292018      -280.0600
   6   2.0000     -10.267585      -279.3952
   7   2.0000     -10.267582      -279.3951
   8   2.0000     -10.267577      -279.3950
   9   2.0000     -10.267573      -279.3949
  10   2.0000     -10.261823      -279.2384
  11   2.0000      -1.139624       -31.0107
  12   2.0000      -1.035444       -28.1759
  13   2.0000      -0.934626       -25.4325
  14   2.0000      -0.883577       -24.0433
  15   2.0000      -0.860468       -23.4145
  16   2.0000      -0.812060       -22.0973
  17   2.0000      -0.811723       -22.0881
  18   2.0000      -0.758247       -20.6329
  19   2.0000      -0.743754       -20.2386
  20   2.0000      -0.671733       -18.2788
  21   2.0000      -0.660747       -17.9798
  22   2.0000      -0.622527       -16.9398
  23   2.0000      -0.586437       -15.9578
  24   2.0000      -0.571862       -15.5611
  25   2.0000      -0.560703       -15.2575
  26   2.0000      -0.558904       -15.2085
  27   2.0000      -0.536801       -14.6071
  28   2.0000      -0.534089       -14.5333
  29   2.0000      -0.528270       -14.3750
  30   2.0000      -0.503853       -13.7105
  31   2.0000      -0.497591       -13.5401
  32   2.0000      -0.486896       -13.2491
  33   2.0000      -0.485324       -13.2063
  34   2.0000      -0.466957       -12.7065
  35   2.0000      -0.459054       -12.4915
  36   2.0000      -0.448339       -12.1999
  37   2.0000      -0.442745       -12.0477
  38   2.0000      -0.434272       -11.8172
  39   2.0000      -0.365813        -9.9543
  40   2.0000      -0.317384        -8.6365
  41   2.0000      -0.301035        -8.1916
  42   0.0000       0.125376         3.4116
  43   0.0000       0.141151         3.8409
  44   0.0000       0.143093         3.8938
  45   0.0000       0.146077         3.9750
  46   0.0000       0.171424         4.6647

MULLIKEN ATOMIC CHARGES
-----------------------
   0 C :    0.001871
   1 C :    0.001873
   2 N :   -0.219867
   3 N :   -0.219869
   4 C :    0.032046
   5 C :    0.032046
   6 C :   -0.127362
   7 C :   -0.000815
   8 C :   -0.000836
   9 C :   -0.000815
  10 C :   -0.000835
  11 H :    0.027939
  12 H :    0.027939
  13 H :    0.036838
  14 H :    0.036838
  15 H :    0.016048
  16 H :    0.016056
  17 H :    0.016047
  18 H :    0.016055
  19 H :    0.032037
  20 H :    0.032049
  21 H :    0.032037
  22 H :    0.032049
  23 H :    0.045158
  24 H :    0.045157
  25 H :    0.045158
  26 H :    0.045157
Sum of atomic charges:   -0.0000000

LOEWDIN ATOMIC CHARGES
----------------------
   0 C :    0.028401
   1 C :    0.028401
   2 N :    0.028149
   3 N :    0.028149
   4 C :   -0.037473
   5 C :   -0.037473
   6 C :   -0.255295
   7 C :   -0.059895
   8 C :   -0.059898
   9 C :   -0.059895
  10 C :   -0.059898
  11 H :    0.024994
  12 H :    0.024994
  13 H :    0.033837
  14 H :    0.033837
  15 H :    0.021305
  16 H :    0.021305
  17 H :    0.021305
  18 H :    0.021305
  19 H :    0.030255
  20 H :    0.030262
  21 H :    0.030255
  22 H :    0.030262
  23 H :    0.033204
  24 H :    0.033202
  25 H :    0.033204
  26 H :    0.033202

  Mayer bond orders larger than 0.100000
B(  0-C ,  2-N ) :   0.9192 B(  0-C ,  7-C ) :   1.0703 B(  0-C ,  8-C ) :   1.0703
B(  0-C , 13-H ) :   0.9307 B(  1-C ,  3-N ) :   0.9192 B(  1-C ,  9-C ) :   1.0703
B(  1-C , 10-C ) :   1.0703 B(  1-C , 14-H ) :   0.9307 B(  2-N ,  4-C ) :   1.1174
B(  2-N ,  6-C ) :   1.2193 B(  3-N ,  5-C ) :   1.1174 B(  3-N ,  6-C ) :   1.2193
B(  4-C ,  5-C ) :   1.6445 B(  4-C , 11-H ) :   0.9859 B(  5-C , 12-H ) :   0.9859
B(  7-C , 15-H ) :   0.9635 B(  7-C , 19-H ) :   0.9725 B(  7-C , 23-H ) :   0.9691
B(  8-C , 16-H ) :   0.9635 B(  8-C , 20-H ) :   0.9725 B(  8-C , 24-H ) :   0.9691
B(  9-C , 17-H ) :   0.9635 B(  9-C , 21-H ) :   0.9725 B(  9-C , 25-H ) :   0.9691
B( 10-C , 18-H ) :   0.9635 B( 10-C , 22-H ) :   0.9725 B( 10-C , 26-H ) :   0.9691

Dispersion correction           -0.004100672
FINAL SINGLE POINT ENERGY      -461.619783370946

DIPOLE MOMENT
-------------
                                X             Y             Z
Electronic contribution:     -0.00000      -0.00000       0.13661
Nuclear contribution   :      0.00000       0.00000      -1.02756
                        -----------------------------------------
Total Dipole Moment    :     -0.00000      -0.00000      -0.89095
                        -----------------------------------------
Magnitude (a.u.)       :      0.89095
Magnitude (Debye)      :      2.26462

Rotational constants in cm-1:     0.091078     0.018628     0.017944
Rotational constants in MHz :  2730.438843   558.467704   537.935246

                             ****ORCA TERMINATED NORMALLY****
TOTAL RUN TIME: 0 days 0 hours 1 minutes 20 seconds 462 msec
