                         Program Version 5.0.4 -  RELEASE  -
|  1> ! SP wB97X D4 def2-SVP def2/J defgrid2
|  2> %maxcore 3000
|  3> %PAL NPROCS 4 END
|  4> * xyz 1 1
|  5> C -0.0 2.5145 0.2095
|  6> C 0.0 -2.5145 0.2095
|  7> N 0.0 1.0876 -0.2427
|  8> N 0.0 -1.0876 -0.2427
|  9> C 0.0 0.6795 -1.5601
| 10> C 0.0 -0.6795 -1.5601
| 11> C 0.0 -0.0 0.527
| 12> H 0.0 1.3798 -2.3927
| 13> H 0.0 -1.3798 -2.3927
| 14> H -0.0 -0.0 1.6137
| 15> C 1.2634 3.1788 -0.3395
| 16> C 1.2634 -3.1788 -0.3395
| 17> C -1.2634 -3.1788 -0.3395
| 18> C -1.2634 3.1788 -0.3395
| 19> H 1.2831 3.1699 -1.4396
| 20> H 1.2831 -3.1699 -1.4396
| 21> H -1.2831 -3.1699 -1.4396
| 22> H -1.2831 3.1699 -1.4396
| 23> H 1.2906 4.2275 -0.0092
| 24> H 1.2906 -4.2275 -0.0092
| 25> H -1.2906 -4.2275 -0.0092
| 26> H -1.2906 4.2275 -0.0092
| 27> H 2.1649 2.6716 0.0365
| 28> H 2.1649 -2.6716 0.0365
| 29> H -2.1649 -2.6715 0.0365
| 30> H -2.1649 2.6716 0.0365
| 31> C -0.0 2.5611 1.7342
| 32> C 0.0 -2.5611 1.7342
| 33> H -0.0 3.6154 2.0442
| 34> H 0.0 -3.6154 2.0442
| 35> H -0.8983 2.0868 2.1584
| 36> H -0.8983 -2.0868 2.1584
| 37> H 0.8983 -2.0868 2.1584
| 38> H 0.8983 2.0868 2.1584
| 39> **                         ****END OF INPUT****

CARTESIAN COORDINATES (ANGSTROEM)
---------------------------------
  C     -0.000000    2.514500    0.209500
  C      0.000000   -2.514500    0.209500
  N      0.000000    1.087600   -0.242700
  N      0.000000   -1.087600   -0.242700
  C      0.000000    0.679500   -1.560100
  C      0.000000   -0.679500   -1.560100
  C      0.000000   -0.000000    0.527000
  H      0.000000    1.379800   -2.392700
  H      0.000000   -1.379800   -2.392700
  H     -0.000000   -0.000000    1.613700
  C      1.263400    3.178800   -0.339500
  C      1.263400   -3.178800   -0.339500
  C     -1.263400   -3.178800   -0.339500
  C     -1.263400    3.178800   -0.339500
  H      1.283100    3.169900   -1.439600
  H      1.283100   -3.169900   -1.439600
  H     -1.283100   -3.169900   -1.439600
  H     -1.283100    3.169900   -1.439600
  H      1.290600    4.227500   -0.009200
  H      1.290600   -4.227500   -0.009200
  H     -1.290600   -4.227500   -0.009200
  H     -1.290600    4.227500   -0.009200
  H      2.164900    2.671600    0.036500
  H      2.164900   -2.671600    0.036500
  H     -2.164900   -2.671500    0.036500
  H     -2.164900    2.671600    0.036500
  C     -0.000000    2.561100    1.734200
  C      0.000000   -2.561100    1.734200
  H     -0.000000    3.615400    2.044200
  H      0.000000   -3.615400    2.044200
  H     -0.898300    2.086800    2.158400
  H     -0.898300   -2.086800    2.158400
  H      0.898300   -2.086800    2.158400
  H      0.898300    2.086800    2.158400

 Total Charge           Charge          ....    1
 Multiplicity           Mult            ....    1
 Number of Electrons    NEL             ....  100
 Basis Dimension        Dim             ....  287

ORBITAL ENERGIES
----------------

  NO   OCC          E(Eh)            E(eV)
   0   2.0000     -14.646740      -398.5581
   1   2.0000     -14.646690      -398.5567
   2   2.0000     -10.524086      -286.3749
   3   2.0000     -10.477074      -285.0957
   4   2.0000     -10.477049      -285.0950
   5   2.0000     -10.473526      -284.9991
   6   2.0000     -10.472940      -284.9832
   7   2.0000     -10.409469      -283.2560
   8   2.0000     -10.409456      -283.2557
   9   2.0000     -10.402477      -283.0658
  10   2.0000     -10.402472      -283.0657
  11   2.0000     -10.402462      -283.0654
  12   2.0000     -10.402459      -283.0653
  13   2.0000      -1.352457       -36.8022
  14   2.0000      -1.232719       -33.5440
  15   2.0000      -1.113640       -30.3037
  16   2.0000      -1.065517       -28.9942
  17   2.0000      -1.060959       -28.8702
  18   2.0000      -0.965675       -26.2773
  19   2.0000      -0.959136       -26.0994
  20   2.0000      -0.952352       -25.9148
  21   2.0000      -0.951580       -25.8938
  22   2.0000      -0.924913       -25.1682
  23   2.0000      -0.902677       -24.5631
  24   2.0000      -0.866096       -23.5677
  25   2.0000      -0.835467       -22.7342
  26   2.0000      -0.778537       -21.1851
  27   2.0000      -0.765344       -20.8261
  28   2.0000      -0.737969       -20.0812
  29   2.0000      -0.726697       -19.7744
  30   2.0000      -0.722955       -19.6726
  31   2.0000      -0.713694       -19.4206
  32   2.0000      -0.708291       -19.2736
  33   2.0000      -0.686930       -18.6923
  34   2.0000      -0.685656       -18.6576
  35   2.0000      -0.677819       -18.4444
  36   2.0000      -0.650203       -17.6929
  37   2.0000      -0.631352       -17.1800
  38   2.0000      -0.631332       -17.1794
  39   2.0000      -0.628512       -17.1027
  40   2.0000      -0.625663       -17.0251
  41   2.0000      -0.617067       -16.7913
  42   2.0000      -0.610980       -16.6256
  43   2.0000      -0.610682       -16.6175
  44   2.0000      -0.597640       -16.2626
  45   2.0000      -0.584474       -15.9044
  46   2.0000      -0.584031       -15.8923
  47   2.0000      -0.582198       -15.8424
  48   2.0000      -0.544125       -14.8064
  49   2.0000      -0.514738       -14.0067
  50   0.0000      -0.077698        -2.1143
  51   0.0000      -0.044633        -1.2145
  52   0.0000      -0.002494        -0.0679
  53   0.0000       0.014252         0.3878
  54   0.0000       0.026913         0.7323

MULLIKEN ATOMIC CHARGES
-----------------------
   0 C :   -0.270839
   1 C :   -0.270841
   2 N :   -0.173307
   3 N :   -0.173308
   4 C :    0.070111
   5 C :    0.070107
   6 C :    0.201520
   7 H :    0.092903
   8 H :    0.092902
   9 H :    0.099824
  10 C :    0.045148
  11 C :    0.045148
  12 C :    0.045132
  13 C :    0.045148
  14 H :    0.047074
  15 H :    0.047074
  16 H :    0.047074
  17 H :    0.047074
  18 H :    0.071096
  19 H :    0.071096
  20 H :    0.071102
  21 H :    0.071096
  22 H :    0.054781
  23 H :    0.054781
  24 H :    0.054792
  25 H :    0.054781
  26 C :    0.008206
  27 C :    0.008210
  28 H :    0.078550
  29 H :    0.078550
  30 H :    0.053754
  31 H :    0.053753
  32 H :    0.053754
  33 H :    0.053754
Sum of atomic charges:    1.0000000

LOEWDIN ATOMIC CHARGES
----------------------
   0 C :    0.009547
   1 C :    0.009545
   2 N :    0.098445
   3 N :    0.098445
   4 C :    0.022250
   5 C :    0.022250
   6 C :    0.102976
   7 H :    0.054465
   8 H :    0.054465
   9 H :    0.052438
  10 C :   -0.040338
  11 C :   -0.040339
  12 C :   -0.040340
  13 C :   -0.040338
  14 H :    0.033306
  15 H :    0.033306
  16 H :    0.033305
  17 H :    0.033306
  18 H :    0.049523
  19 H :    0.049522
  20 H :    0.049522
  21 H :    0.049523
  22 H :    0.037683
  23 H :    0.037683
  24 H :    0.037691
  25 H :    0.037683
  26 C :   -0.046914
  27 C :   -0.046914
  28 H :    0.055345
  29 H :    0.055345
  30 H :    0.034404
  31 H :    0.034404
  32 H :    0.034404
  33 H :    0.034404

  Mayer bond orders larger than 0.100000
B(  0-C ,  2-N ) :   0.7953 B(  0-C , 10-C ) :   1.0323 B(  0-C , 13-C ) :   1.0323
B(  0-C , 26-C ) :   1.0581 B(  1-C ,  3-N ) :   0.7953 B(  1-C , 11-C ) :   1.0323
B(  1-C , 12-C ) :   1.0323 B(  1-C , 27-C ) :   1.0581 B(  2-N ,  4-C ) :   1.1743
B(  2-N ,  6-C ) :   1.3560 B(  3-N ,  5-C ) :   1.1743 B(  3-N ,  6-C ) :   1.3560
B(  4-C ,  5-C ) :   1.6209 B(  4-C ,  7-H ) :   0.9820 B(  5-C ,  8-H ) :   0.9820
B(  6-C ,  9-H ) :   0.9640 B( 10-C , 14-H ) :   0.9613 B( 10-C , 18-H ) :   0.9686
B( 10-C , 22-H ) :   0.9646 B( 11-C , 15-H ) :   0.9613 B( 11-C , 19-H ) :   0.9686
B( 11-C , 23-H ) :   0.9646 B( 12-C , 16-H ) :   0.9613 B( 12-C , 20-H ) :   0.9686
B( 12-C , 24-H ) :   0.9646 B( 13-C , 17-H ) :   0.9613 B( 13-C , 21-H ) :   0.9686
B( 13-C , 25-H ) :   0.9646 B( 26-C , 28-H ) :   0.9605 B( 26-C , 30-H ) :   0.9567
B( 26-C , 33-H ) :   0.9567 B( 27-C , 29-H ) :   0.9605 B( 27-C , 31-H ) :   0.9567
B( 27-C , 32-H ) :   0.9567

Dispersion correction           -0.005587251
FINAL SINGLE POINT ENERGY      -540.620706319608

DIPOLE MOMENT
-------------
                                X             Y             Z
Electronic contribution:      0.00001      -0.00008      -4.02652
Nuclear contribution   :      0.00000       0.00008       4.05226
                        -----------------------------------------
Total Dipole Moment    :      0.00001       0.00001       0.02574
                        -----------------------------------------
Magnitude (a.u.)       :      0.02574
Magnitude (Debye)      :      0.06542

Rotational constants in cm-1:     0.055426     0.014782     0.013815
Rotational constants in MHz :  1661.637353   443.143284   414.175888

                             ****ORCA TERMINATED NORMALLY****
TOTAL RUN TIME: 0 days 0 hours 1 minutes 52 seconds 103 msec
