                         Program Version 5.0.4 -  RELEASE  -
|  1> ! SP wB97X D4 def2-SVP def2/J defgrid2
|  2> %maxcore 3000
|  3> %PAL NPROCS 4 END
|  4> * xyz 0 1
|  5> C 1.5797 -0.07 0.4057
|  6> C 0.8176 -1.0868 0.871
|  7> N 0.7311 0.7511 -0.3237
|  8> N -0.471 -0.8494 0.4134
|  9> C -0.547 0.2866 -0.3306
| 10> H 2.6419 0.1275 0.539
| 11> H 1.0911 -1.9442 1.4832
| 12> C 1.2047 1.9935 -0.9806
| 13> C -1.6014 -1.7584 0.7211
| 14> C 0.0626 2.6526 -1.7486
| 15> C -1.3033 -3.133 0.1129
| 16> C -1.7447 -1.8642 2.2433
| 17> C 2.3303 1.6347 -1.9563
| 18> H -0.3267 1.988 -2.5333
| 19> H -0.3822 -3.5686 0.5301
| 20> H -0.8447 -2.2954 2.7078
| 21> H 1.9697 0.9189 -2.7116
| 22> H -0.7702 2.916 -1.0822
| 23> H -1.1859 -3.0526 -0.9792
| 24> H -1.9219 -0.8702 2.6833
| 25> H 3.1932 1.1884 -1.4388
| 26> H 0.4429 3.5712 -2.2208
| 27> H -2.1315 -3.8265 0.3241
| 28> H -2.5971 -2.513 2.4956
| 29> H 2.6807 2.5404 -2.474
| 30> C 1.716 2.952 0.1007
| 31> C -2.8953 -1.2086 0.1279
| 32> H 2.0693 3.8878 -0.3587
| 33> H -3.7152 -1.901 0.3721
| 34> H 0.9101 3.1949 0.8109
| 35> H -2.8257 -1.1139 -0.9648
| 36> H -3.135 -0.2178 0.5394
| 37> H 2.5549 2.5138 0.6632
| 38> **                         ****END OF INPUT****

CARTESIAN COORDINATES (ANGSTROEM)
---------------------------------
  C      1.579700   -0.070000    0.405700
  C      0.817600   -1.086800    0.871000
  N      0.731100    0.751100   -0.323700
  N     -0.471000   -0.849400    0.413400
  C     -0.547000    0.286600   -0.330600
  H      2.641900    0.127500    0.539000
  H      1.091100   -1.944200    1.483200
  C      1.204700    1.993500   -0.980600
  C     -1.601400   -1.758400    0.721100
  C      0.062600    2.652600   -1.748600
  C     -1.303300   -3.133000    0.112900
  C     -1.744700   -1.864200    2.243300
  C      2.330300    1.634700   -1.956300
  H     -0.326700    1.988000   -2.533300
  H     -0.382200   -3.568600    0.530100
  H     -0.844700   -2.295400    2.707800
  H      1.969700    0.918900   -2.711600
  H     -0.770200    2.916000   -1.082200
  H     -1.185900   -3.052600   -0.979200
  H     -1.921900   -0.870200    2.683300
  H      3.193200    1.188400   -1.438800
  H      0.442900    3.571200   -2.220800
  H     -2.131500   -3.826500    0.324100
  H     -2.597100   -2.513000    2.495600
  H      2.680700    2.540400   -2.474000
  C      1.716000    2.952000    0.100700
  C     -2.895300   -1.208600    0.127900
  H      2.069300    3.887800   -0.358700
  H     -3.715200   -1.901000    0.372100
  H      0.910100    3.194900    0.810900
  H     -2.825700   -1.113900   -0.964800
  H     -3.135000   -0.217800    0.539400
  H      2.554900    2.513800    0.663200

 Total Charge           Charge          ....    0
 Multiplicity           Mult            ....    1
 Number of Electrons    NEL             ....  100
 Basis Dimension        Dim             ....  282

ORBITAL ENERGIES
----------------

  NO   OCC          E(Eh)            E(eV)
   0   2.0000     -14.436924      -392.8487
   1   2.0000     -14.436896      -392.8479
   2   2.0000     -10.315128      -280.6889
   3   2.0000     -10.315071      -280.6873
   4   2.0000     -10.289997      -280.0051
   5   2.0000     -10.289401      -279.9888
   6   2.0000     -10.266041      -279.3532
   7   2.0000     -10.265988      -279.3517
   8   2.0000     -10.265451      -279.3371
   9   2.0000     -10.265417      -279.3362
  10   2.0000     -10.259895      -279.1859
  11   2.0000     -10.252981      -278.9978
  12   2.0000     -10.252884      -278.9952
  13   2.0000      -1.136644       -30.9297
  14   2.0000      -1.036417       -28.2023
  15   2.0000      -0.949606       -25.8401
  16   2.0000      -0.898156       -24.4401
  17   2.0000      -0.860171       -23.4064
  18   2.0000      -0.812257       -22.1026
  19   2.0000      -0.811864       -22.0920
  20   2.0000      -0.807396       -21.9704
  21   2.0000      -0.799924       -21.7670
  22   2.0000      -0.754108       -20.5203
  23   2.0000      -0.713981       -19.4284
  24   2.0000      -0.655099       -17.8262
  25   2.0000      -0.645416       -17.5627
  26   2.0000      -0.615620       -16.7519
  27   2.0000      -0.578745       -15.7485
  28   2.0000      -0.576594       -15.6899
  29   2.0000      -0.558172       -15.1886
  30   2.0000      -0.555817       -15.1246
  31   2.0000      -0.549803       -14.9609
  32   2.0000      -0.535263       -14.5653
  33   2.0000      -0.526984       -14.3400
  34   2.0000      -0.526675       -14.3316
  35   2.0000      -0.505047       -13.7430
  36   2.0000      -0.491375       -13.3710
  37   2.0000      -0.482908       -13.1406
  38   2.0000      -0.478957       -13.0331
  39   2.0000      -0.470666       -12.8075
  40   2.0000      -0.466387       -12.6910
  41   2.0000      -0.465636       -12.6706
  42   2.0000      -0.461216       -12.5503
  43   2.0000      -0.445580       -12.1248
  44   2.0000      -0.436964       -11.8904
  45   2.0000      -0.433676       -11.8009
  46   2.0000      -0.429237       -11.6801
  47   2.0000      -0.361972        -9.8497
  48   2.0000      -0.316815        -8.6210
  49   2.0000      -0.295566        -8.0428
  50   0.0000       0.125779         3.4226
  51   0.0000       0.135054         3.6750
  52   0.0000       0.141753         3.8573
  53   0.0000       0.144437         3.9303
  54   0.0000       0.170696         4.6449

MULLIKEN ATOMIC CHARGES
-----------------------
   0 C :    0.035338
   1 C :    0.035090
   2 N :   -0.207804
   3 N :   -0.207554
   4 C :   -0.122796
   5 H :    0.026106
   6 H :    0.025909
   7 C :   -0.210486
   8 C :   -0.211197
   9 C :    0.081032
  10 C :    0.052564
  11 C :    0.049056
  12 C :    0.048311
  13 H :    0.033070
  14 H :    0.014681
  15 H :    0.014589
  16 H :    0.037539
  17 H :    0.037025
  18 H :    0.037576
  19 H :    0.037590
  20 H :    0.014732
  21 H :    0.012154
  22 H :    0.024333
  23 H :    0.024903
  24 H :    0.025039
  25 C :    0.053198
  26 C :    0.081334
  27 H :    0.024352
  28 H :    0.012242
  29 H :    0.037432
  30 H :    0.036456
  31 H :    0.033700
  32 H :    0.014486
Sum of atomic charges:   -0.0000000

LOEWDIN ATOMIC CHARGES
----------------------
   0 C :   -0.036193
   1 C :   -0.036159
   2 N :    0.028662
   3 N :    0.028722
   4 C :   -0.249419
   5 H :    0.024174
   6 H :    0.024137
   7 C :    0.007016
   8 C :    0.006904
   9 C :   -0.042209
  10 C :   -0.048996
  11 C :   -0.049160
  12 C :   -0.049172
  13 H :    0.030657
  14 H :    0.020330
  15 H :    0.019943
  16 H :    0.030998
  17 H :    0.031256
  18 H :    0.031104
  19 H :    0.031021
  20 H :    0.019934
  21 H :    0.021876
  22 H :    0.027441
  23 H :    0.027860
  24 H :    0.027929
  25 C :   -0.048913
  26 C :   -0.042292
  27 H :    0.027366
  28 H :    0.021813
  29 H :    0.031092
  30 H :    0.031254
  31 H :    0.030711
  32 H :    0.020315

  Mayer bond orders larger than 0.100000
B(  0-C ,  1-C ) :   1.6545 B(  0-C ,  2-N ) :   1.1150 B(  0-C ,  5-H ) :   0.9835
B(  1-C ,  3-N ) :   1.1152 B(  1-C ,  6-H ) :   0.9836 B(  2-N ,  4-C ) :   1.2356
B(  2-N ,  7-C ) :   0.8800 B(  3-N ,  4-C ) :   1.2357 B(  3-N ,  8-C ) :   0.8800
B(  7-C ,  9-C ) :   1.0637 B(  7-C , 12-C ) :   1.0402 B(  7-C , 25-C ) :   1.0403
B(  8-C , 10-C ) :   1.0403 B(  8-C , 11-C ) :   1.0405 B(  8-C , 26-C ) :   1.0640
B(  9-C , 13-H ) :   0.9563 B(  9-C , 17-H ) :   0.9549 B(  9-C , 21-H ) :   0.9635
B( 10-C , 14-H ) :   0.9622 B( 10-C , 18-H ) :   0.9675 B( 10-C , 22-H ) :   0.9713
B( 11-C , 15-H ) :   0.9626 B( 11-C , 19-H ) :   0.9676 B( 11-C , 23-H ) :   0.9710
B( 12-C , 16-H ) :   0.9676 B( 12-C , 20-H ) :   0.9627 B( 12-C , 24-H ) :   0.9711
B( 25-C , 27-H ) :   0.9713 B( 25-C , 29-H ) :   0.9675 B( 25-C , 32-H ) :   0.9622
B( 26-C , 28-H ) :   0.9634 B( 26-C , 30-H ) :   0.9549 B( 26-C , 31-H ) :   0.9558

Dispersion correction           -0.005719397
FINAL SINGLE POINT ENERGY      -540.175591667771

DIPOLE MOMENT
-------------
                                X             Y             Z
Electronic contribution:      2.45123      -1.24737       1.29924
Nuclear contribution   :     -1.80330       0.93077      -0.93353
                        -----------------------------------------
Total Dipole Moment    :      0.64793      -0.31660       0.36571
                        -----------------------------------------
Magnitude (a.u.)       :      0.80857
Magnitude (Debye)      :      2.05522

Rotational constants in cm-1:     0.056252     0.014839     0.013903
Rotational constants in MHz :  1686.389677   444.868500   416.805492

                             ****ORCA TERMINATED NORMALLY****
TOTAL RUN TIME: 0 days 0 hours 1 minutes 52 seconds 733 msec
