                         Program Version 5.0.3 -  RELEASE  -
|  1> # ORCAForces - ../2023_02/pKa_prediction/Yates_carbene_xyzs/Our_level/Water/iPrMe+_Water.inp
|  2> # Basic Mode
|  3> #
|  4> ! Opt FREQ wB97X D4 Def2-SVP SlowConv TightSCF DEFGRID2 Def2/J RIJCOSX CPCM(Water)
|  5>
|  6> %maxcore 4500
|  7>
|  8> %PAL NPROCS 4 END
|  9>
| 10> %geom
| 11> Maxiter 150
| 12> END
| 13>
| 14> * xyzfile 1 1 iPrMe+.xyz
| 15>
| 16>                          ****END OF INPUT****
 Total Charge           Charge          ....    1
 Multiplicity           Mult            ....    1
 Number of Electrons    NEL             ....  100
Dispersion correction           -0.005565099
FINAL SINGLE POINT ENERGY      -540.703202505266
Dispersion correction            ... Starting D4
Dispersion correction           -0.005601951
FINAL SINGLE POINT ENERGY      -540.705079824906
Dispersion correction            ... Starting D4
Dispersion correction           -0.005604172
FINAL SINGLE POINT ENERGY      -540.705114639953
Dispersion correction            ... Starting D4
Dispersion correction           -0.005604773
FINAL SINGLE POINT ENERGY      -540.705125863008
Dispersion correction            ... Starting D4
                    ***********************HURRAY********************

CARTESIAN COORDINATES (ANGSTROEM)
---------------------------------
  C      0.000001    0.685393   -1.312082
  C     -0.000001   -0.685394   -1.312082
  C      0.000003   -0.000000    0.788497
  N      0.000002    1.082684    0.016686
  N      0.000003   -1.082685    0.016686
  H      0.000005   -0.000000    1.878988
  C      0.000000    1.651535   -2.446855
  C     -0.000006   -1.651535   -2.446855
  H     -0.892273    2.295745   -2.424875
  H     -0.892280   -2.295742   -2.424874
  H      0.892267   -2.295746   -2.424879
  H      0.892274    2.295743   -2.424877
  H     -0.000002    1.104250   -3.397949
  H     -0.000007   -1.104250   -3.397950
  C     -1.272798    2.750880    1.304911
  C     -1.272798   -2.750881    1.304909
  C      1.272799   -2.750879    1.304917
  C      1.272798    2.750881    1.304914
  C      0.000001    2.473685    0.516828
  C      0.000003   -2.473685    0.516828
  H     -2.165788    2.535527    0.699702
  H     -2.165787   -2.535527    0.699699
  H      2.165791   -2.535521    0.699713
  H      2.165790    2.535527    0.699707
  H     -1.311003    2.143122    2.222918
  H     -1.311002   -2.143124    2.222917
  H      1.310996   -2.143125    2.222926
  H      1.311000    2.143124    2.222922
  H     -1.297447    3.810527    1.597396
  H     -1.297447   -3.810528    1.597393
  H      1.297449   -3.810527    1.597398
  H      1.297447    3.810528    1.597397
  H      0.000002    3.097783   -0.387027
  H      0.000006   -3.097784   -0.387027

 Multiplicity           Mult            ....    1
 Number of Electrons    NEL             ....  100
 Basis Dimension        Dim             ....  287

ORBITAL ENERGIES
----------------

  NO   OCC          E(Eh)            E(eV)
   0   2.0000     -14.501081      -394.5945
   1   2.0000     -14.501064      -394.5940
   2   2.0000     -10.375832      -282.3407
   3   2.0000     -10.334553      -281.2175
   4   2.0000     -10.334529      -281.2168
   5   2.0000     -10.331936      -281.1463
   6   2.0000     -10.331451      -281.1331
   7   2.0000     -10.286783      -279.9176
   8   2.0000     -10.286726      -279.9160
   9   2.0000     -10.273947      -279.5683
  10   2.0000     -10.273947      -279.5683
  11   2.0000     -10.273945      -279.5682
  12   2.0000     -10.273938      -279.5681
  13   2.0000      -1.207817       -32.8664
  14   2.0000      -1.090707       -29.6796
  15   2.0000      -0.967667       -26.3315
  16   2.0000      -0.938116       -25.5274
  17   2.0000      -0.915318       -24.9071
  18   2.0000      -0.865572       -23.5534
  19   2.0000      -0.825021       -22.4500
  20   2.0000      -0.821322       -22.3493
  21   2.0000      -0.820424       -22.3249
  22   2.0000      -0.805261       -21.9123
  23   2.0000      -0.733880       -19.9699
  24   2.0000      -0.727101       -19.7854
  25   2.0000      -0.694176       -18.8895
  26   2.0000      -0.646475       -17.5915
  27   2.0000      -0.628433       -17.1005
  28   2.0000      -0.611332       -16.6352
  29   2.0000      -0.596975       -16.2445
  30   2.0000      -0.574010       -15.6196
  31   2.0000      -0.565786       -15.3958
  32   2.0000      -0.559908       -15.2359
  33   2.0000      -0.541427       -14.7330
  34   2.0000      -0.537469       -14.6253
  35   2.0000      -0.533663       -14.5217
  36   2.0000      -0.524126       -14.2622
  37   2.0000      -0.518003       -14.0956
  38   2.0000      -0.514631       -14.0038
  39   2.0000      -0.505071       -13.7437
  40   2.0000      -0.501481       -13.6460
  41   2.0000      -0.492744       -13.4082
  42   2.0000      -0.489682       -13.3249
  43   2.0000      -0.481684       -13.1073
  44   2.0000      -0.470336       -12.7985
  45   2.0000      -0.460875       -12.5411
  46   2.0000      -0.454864       -12.3775
  47   2.0000      -0.452673       -12.3179
  48   2.0000      -0.405602       -11.0370
  49   2.0000      -0.346714        -9.4346
  50   0.0000       0.060863         1.6562
  51   0.0000       0.109193         2.9713
  52   0.0000       0.129180         3.5152
  53   0.0000       0.144203         3.9240
  54   0.0000       0.144520         3.9326

MULLIKEN ATOMIC CHARGES
-----------------------
   0 C :   -0.092034
   1 C :   -0.092036
   2 C :    0.201152
   3 N :   -0.191952
   4 N :   -0.191952
   5 H :    0.139130
   6 C :    0.070860
   7 C :    0.070861
   8 H :    0.078243
   9 H :    0.078243
  10 H :    0.078243
  11 H :    0.078243
  12 H :    0.054336
  13 H :    0.054335
  14 C :   -0.008841
  15 C :   -0.008841
  16 C :   -0.008843
  17 C :   -0.008842
  18 C :   -0.052817
  19 C :   -0.052816
  20 H :    0.055995
  21 H :    0.055996
  22 H :    0.055995
  23 H :    0.055996
  24 H :    0.049256
  25 H :    0.049255
  26 H :    0.049256
  27 H :    0.049255
  28 H :    0.061503
  29 H :    0.061503
  30 H :    0.061504
  31 H :    0.061503
  32 H :    0.069156
  33 H :    0.069156
Sum of atomic charges:    1.0000000

LOEWDIN ATOMIC CHARGES
----------------------
   0 C :   -0.007003
   1 C :   -0.007003
   2 C :    0.118057
   3 N :    0.096720
   4 N :    0.096720
   5 H :    0.064334
   6 C :   -0.052730
   7 C :   -0.052730
   8 H :    0.052879
   9 H :    0.052879
  10 H :    0.052879
  11 H :    0.052879
  12 H :    0.052731
  13 H :    0.052731
  14 C :   -0.053897
  15 C :   -0.053897
  16 C :   -0.053897
  17 C :   -0.053897
  18 C :    0.040548
  19 C :    0.040548
  20 H :    0.037890
  21 H :    0.037890
  22 H :    0.037890
  23 H :    0.037890
  24 H :    0.035016
  25 H :    0.035016
  26 H :    0.035016
  27 H :    0.035016
  28 H :    0.044552
  29 H :    0.044552
  30 H :    0.044552
  31 H :    0.044552
  32 H :    0.045658
  33 H :    0.045658

  Mayer bond orders larger than 0.100000
B(  0-C ,  1-C ) :   1.6125 B(  0-C ,  3-N ) :   1.1689 B(  0-C ,  6-C ) :   1.0924
B(  1-C ,  4-N ) :   1.1689 B(  1-C ,  7-C ) :   1.0924 B(  2-C ,  3-N ) :   1.3463
B(  2-C ,  4-N ) :   1.3463 B(  2-C ,  5-H ) :   0.9648 B(  3-N , 18-C ) :   0.8469
B(  4-N , 19-C ) :   0.8469 B(  6-C ,  8-H ) :   0.9463 B(  6-C , 11-H ) :   0.9463
B(  6-C , 12-H ) :   0.9397 B(  7-C ,  9-H ) :   0.9463 B(  7-C , 10-H ) :   0.9463
B(  7-C , 13-H ) :   0.9397 B( 14-C , 18-C ) :   1.0720 B( 14-C , 20-H ) :   0.9673
B( 14-C , 24-H ) :   0.9628 B( 14-C , 28-H ) :   0.9695 B( 15-C , 19-C ) :   1.0720
B( 15-C , 21-H ) :   0.9673 B( 15-C , 25-H ) :   0.9628 B( 15-C , 29-H ) :   0.9695
B( 16-C , 19-C ) :   1.0720 B( 16-C , 22-H ) :   0.9673 B( 16-C , 26-H ) :   0.9628
B( 16-C , 30-H ) :   0.9695 B( 17-C , 18-C ) :   1.0720 B( 17-C , 23-H ) :   0.9673
B( 17-C , 27-H ) :   0.9628 B( 17-C , 31-H ) :   0.9695 B( 18-C , 32-H ) :   0.9350
B( 19-C , 33-H ) :   0.9350

Dispersion correction           -0.005604679
FINAL SINGLE POINT ENERGY      -540.705126554343

DIPOLE MOMENT
-------------
                                X             Y             Z
Electronic contribution:      0.00002      -0.00000      -2.69688
Nuclear contribution   :     -0.00002       0.00000       2.79963
                        -----------------------------------------
Total Dipole Moment    :      0.00000       0.00000       0.10276
                        -----------------------------------------
Magnitude (a.u.)       :      0.10276
Magnitude (Debye)      :      0.26119

Dispersion correction in the Hessian             ... Starting D4

VIBRATIONAL FREQUENCIES
-----------------------

Scaling factor for frequencies =  1.000000000  (already applied!)

   0:         0.00 cm**-1
   1:         0.00 cm**-1
   2:         0.00 cm**-1
   3:         0.00 cm**-1
   4:         0.00 cm**-1
   5:         0.00 cm**-1
   6:        33.13 cm**-1
   7:        45.56 cm**-1
   8:        89.23 cm**-1
   9:       106.64 cm**-1
  10:       144.39 cm**-1
  11:       200.45 cm**-1
  12:       203.84 cm**-1
  13:       217.03 cm**-1
  14:       227.51 cm**-1
  15:       269.98 cm**-1
  16:       271.82 cm**-1
  17:       281.92 cm**-1
  18:       288.28 cm**-1
  19:       289.94 cm**-1
  20:       293.03 cm**-1
  21:       315.31 cm**-1
  22:       322.64 cm**-1
  23:       394.89 cm**-1
  24:       423.43 cm**-1
  25:       475.33 cm**-1
  26:       492.70 cm**-1
  27:       551.42 cm**-1
  28:       614.52 cm**-1
  29:       624.49 cm**-1
  30:       682.58 cm**-1
  31:       713.75 cm**-1
  32:       754.06 cm**-1
  33:       803.54 cm**-1
  34:       881.42 cm**-1
  35:       915.90 cm**-1
  36:       929.27 cm**-1
  37:       947.10 cm**-1
  38:       947.27 cm**-1
  39:       967.91 cm**-1
  40:       968.83 cm**-1
  41:       977.44 cm**-1
  42:      1048.40 cm**-1
  43:      1067.34 cm**-1
  44:      1072.60 cm**-1
  45:      1099.50 cm**-1
  46:      1132.04 cm**-1
  47:      1160.75 cm**-1
  48:      1180.66 cm**-1
  49:      1182.11 cm**-1
  50:      1201.56 cm**-1
  51:      1222.16 cm**-1
  52:      1233.09 cm**-1
  53:      1252.66 cm**-1
  54:      1350.15 cm**-1
  55:      1353.15 cm**-1
  56:      1353.40 cm**-1
  57:      1379.66 cm**-1
  58:      1397.90 cm**-1
  59:      1405.17 cm**-1
  60:      1405.46 cm**-1
  61:      1406.73 cm**-1
  62:      1409.62 cm**-1
  63:      1422.63 cm**-1
  64:      1429.59 cm**-1
  65:      1443.46 cm**-1
  66:      1443.73 cm**-1
  67:      1446.32 cm**-1
  68:      1448.45 cm**-1
  69:      1448.47 cm**-1
  70:      1458.37 cm**-1
  71:      1460.73 cm**-1
  72:      1460.94 cm**-1
  73:      1463.48 cm**-1
  74:      1463.61 cm**-1
  75:      1474.87 cm**-1
  76:      1479.16 cm**-1
  77:      1518.69 cm**-1
  78:      1530.87 cm**-1
  79:      1652.17 cm**-1
  80:      1728.22 cm**-1
  81:      3071.04 cm**-1
  82:      3071.06 cm**-1
  83:      3072.78 cm**-1
  84:      3072.85 cm**-1
  85:      3076.75 cm**-1
  86:      3077.93 cm**-1
  87:      3156.62 cm**-1
  88:      3156.67 cm**-1
  89:      3170.31 cm**-1
  90:      3170.48 cm**-1
  91:      3173.92 cm**-1
  92:      3173.96 cm**-1
  93:      3179.47 cm**-1
  94:      3179.49 cm**-1
  95:      3187.28 cm**-1
  96:      3187.28 cm**-1
  97:      3189.32 cm**-1
  98:      3189.36 cm**-1
  99:      3202.51 cm**-1
 100:      3205.88 cm**-1
 101:      3296.19 cm**-1

IR SPECTRUM
-----------

 Mode   freq       eps      Int      T**2         TX        TY        TZ
       cm**-1   L/(mol*cm) km/mol    a.u.
----------------------------------------------------------------------------
  6:     33.13   0.000081    0.41  0.000763  ( 0.027617  0.000000  0.000000)
  7:     45.56   0.000000    0.00  0.000000  ( 0.000001  0.000000  0.000000)
  8:     89.23   0.000084    0.42  0.000292  (-0.017101 -0.000000  0.000000)
  9:    106.64   0.000000    0.00  0.000000  (-0.000000 -0.000000  0.000000)
 10:    144.39   0.000014    0.07  0.000031  ( 0.000000  0.000000 -0.005565)
 11:    200.45   0.000000    0.00  0.000000  ( 0.000001  0.000000 -0.000000)
 12:    203.84   0.000066    0.33  0.000100  (-0.010022  0.000000 -0.000000)
 13:    217.03   0.000000    0.00  0.000000  ( 0.000000 -0.000000 -0.000000)
 14:    227.51   0.000001    0.01  0.000002  (-0.000000  0.001363  0.000000)
 15:    269.98   0.000004    0.02  0.000004  ( 0.002090 -0.000000  0.000000)
 16:    271.82   0.000000    0.00  0.000000  ( 0.000000  0.000000  0.000000)
 17:    281.92   0.000047    0.24  0.000052  ( 0.000002 -0.000000  0.007236)
 18:    288.28   0.000009    0.05  0.000010  ( 0.000001 -0.003205 -0.000000)
 19:    289.94   0.003114   15.74  0.003351  ( 0.057890  0.000000 -0.000001)
 20:    293.03   0.000065    0.33  0.000069  (-0.000001  0.000000 -0.008308)
 21:    315.31   0.000108    0.55  0.000107  ( 0.000000  0.010356  0.000000)
 22:    322.64   0.000024    0.12  0.000023  ( 0.000001 -0.000001  0.004803)
 23:    394.89   0.000180    0.91  0.000142  ( 0.011922 -0.000000  0.000000)
 24:    423.43   0.000185    0.93  0.000136  ( 0.000000 -0.011671 -0.000000)
 25:    475.33   0.000028    0.14  0.000018  ( 0.000000  0.000000  0.004253)
 26:    492.70   0.000000    0.00  0.000000  ( 0.000000 -0.000000  0.000000)
 27:    551.42   0.002039   10.30  0.001154  (-0.000000  0.033966  0.000000)
 28:    614.52   0.001143    5.77  0.000580  ( 0.000000  0.000000 -0.024089)
 29:    624.49   0.000726    3.67  0.000363  ( 0.000000  0.019044  0.000000)
 30:    682.58   0.006482   32.76  0.002963  (-0.054438  0.000000  0.000000)
 31:    713.75   0.000000    0.00  0.000000  (-0.000000  0.000000 -0.000000)
 32:    754.06   0.000387    1.96  0.000160  ( 0.000000 -0.000000  0.012657)
 33:    803.54   0.000066    0.33  0.000026  (-0.000000 -0.005054 -0.000000)
 34:    881.42   0.002396   12.11  0.000848  (-0.029126 -0.000000  0.000000)
 35:    915.90   0.000011    0.06  0.000004  ( 0.000000 -0.000000 -0.001956)
 36:    929.27   0.000765    3.87  0.000257  (-0.000000  0.016032  0.000000)
 37:    947.10   0.000000    0.00  0.000000  (-0.000017  0.000000  0.000000)
 38:    947.27   0.001193    6.03  0.000393  ( 0.019824  0.000000  0.000000)
 39:    967.91   0.000000    0.00  0.000000  (-0.000002 -0.000000 -0.000000)
 40:    968.83   0.000407    2.05  0.000131  (-0.011444 -0.000000  0.000000)
 41:    977.44   0.000002    0.01  0.000001  (-0.000000  0.000000 -0.000718)
 42:   1048.40   0.001557    7.87  0.000463  ( 0.021525  0.000000 -0.000000)
 43:   1067.34   0.000132    0.67  0.000039  (-0.000000 -0.006207  0.000000)
 44:   1072.60   0.000000    0.00  0.000000  (-0.000000 -0.000000  0.000000)
 45:   1099.50   0.000775    3.91  0.000220  ( 0.000000  0.000000  0.014827)
 46:   1132.04   0.005353   27.05  0.001476  ( 0.000000 -0.038415 -0.000000)
 47:   1160.75   0.000681    3.44  0.000183  (-0.000000 -0.000000  0.013535)
 48:   1180.66   0.000000    0.00  0.000000  ( 0.000003 -0.000000 -0.000000)
 49:   1182.11   0.004740   23.95  0.001251  ( 0.035372 -0.000000 -0.000000)
 50:   1201.56   0.000126    0.64  0.000033  (-0.000000  0.005730  0.000000)
 51:   1222.16   0.001715    8.67  0.000438  (-0.000000 -0.000001 -0.020927)
 52:   1233.09   0.049302  249.15  0.012477  ( 0.000000  0.111701 -0.000000)
 53:   1252.66   0.001072    5.42  0.000267  (-0.000000  0.016345  0.000000)
 54:   1350.15   0.000242    1.22  0.000056  (-0.000000 -0.000000 -0.007478)
 55:   1353.15   0.000000    0.00  0.000000  ( 0.000001  0.000000 -0.000000)
 56:   1353.40   0.000020    0.10  0.000005  ( 0.002145  0.000000 -0.000001)
 57:   1379.66   0.001690    8.54  0.000382  (-0.000000 -0.019549  0.000000)
 58:   1397.90   0.000911    4.60  0.000203  ( 0.000000  0.000000 -0.014262)
 59:   1405.17   0.000000    0.00  0.000000  (-0.000017 -0.000000 -0.000001)
 60:   1405.46   0.007464   37.72  0.001657  (-0.040710 -0.000001 -0.000000)
 61:   1406.73   0.000412    2.08  0.000091  ( 0.000004 -0.009565 -0.000001)
 62:   1409.62   0.001687    8.52  0.000373  ( 0.000001  0.000000 -0.019323)
 63:   1422.63   0.006347   32.08  0.001392  (-0.000000 -0.037314  0.000000)
 64:   1429.59   0.013178   66.60  0.002877  (-0.000000 -0.000000 -0.053634)
 65:   1443.46   0.007135   36.06  0.001542  ( 0.039274 -0.000000 -0.000000)
 66:   1443.73   0.000000    0.00  0.000000  ( 0.000013  0.000002  0.000000)
 67:   1446.32   0.004247   21.46  0.000916  ( 0.000000  0.030271 -0.000000)
 68:   1448.45   0.000163    0.82  0.000035  ( 0.005928  0.000000 -0.000001)
 69:   1448.47   0.000000    0.00  0.000000  ( 0.000049 -0.000000 -0.000000)
 70:   1458.37   0.000114    0.57  0.000024  ( 0.000000  0.000000 -0.004928)
 71:   1460.73   0.000000    0.00  0.000000  (-0.000006  0.000001  0.000001)
 72:   1460.94   0.000651    3.29  0.000139  (-0.011790  0.000000  0.000003)
 73:   1463.48   0.002695   13.62  0.000575  ( 0.000000  0.023974  0.000012)
 74:   1463.61   0.008297   41.93  0.001769  ( 0.000001 -0.000007  0.042060)
 75:   1474.87   0.000303    1.53  0.000064  ( 0.000000 -0.008011  0.000000)
 76:   1479.16   0.001047    5.29  0.000221  ( 0.000000  0.000000  0.014862)
 77:   1518.69   0.000359    1.81  0.000074  ( 0.000000  0.008590  0.000000)
 78:   1530.87   0.000353    1.78  0.000072  (-0.000000  0.000000 -0.008482)
 79:   1652.17   0.034142  172.54  0.006449  ( 0.000000 -0.080304  0.000000)
 80:   1728.22   0.006101   30.83  0.001102  (-0.000000  0.000000 -0.033192)
 81:   3071.04   0.006084   30.75  0.000618  ( 0.024864  0.000000 -0.000001)
 82:   3071.06   0.000000    0.00  0.000000  (-0.000107 -0.000000 -0.000000)
 83:   3072.78   0.000210    1.06  0.000021  ( 0.000000  0.004617  0.000020)
 84:   3072.85   0.002697   13.63  0.000274  ( 0.000002 -0.000006  0.016549)
 85:   3076.75   0.002765   13.97  0.000280  (-0.000000 -0.016747 -0.000001)
 86:   3077.93   0.001504    7.60  0.000153  ( 0.000000 -0.000001  0.012350)
 87:   3156.62   0.000031    0.16  0.000003  (-0.000000  0.001752  0.000006)
 88:   3156.67   0.000009    0.05  0.000001  ( 0.000000 -0.000011  0.000945)
 89:   3170.31   0.001271    6.42  0.000125  (-0.011186 -0.000000 -0.000000)
 90:   3170.48   0.000000    0.00  0.000000  (-0.000006 -0.000000  0.000000)
 91:   3173.92   0.001900    9.60  0.000187  ( 0.013667 -0.000000  0.000001)
 92:   3173.96   0.000000    0.00  0.000000  (-0.000033 -0.000001  0.000000)
 93:   3179.47   0.003955   19.99  0.000388  ( 0.000000  0.019702 -0.000221)
 94:   3179.49   0.007577   38.29  0.000744  ( 0.000000 -0.000160 -0.027269)
 95:   3187.28   0.000005    0.02  0.000000  ( 0.000665 -0.000000  0.000000)
 96:   3187.28   0.002285   11.55  0.000224  (-0.014957  0.000001  0.000000)
 97:   3189.32   0.006792   34.32  0.000665  (-0.000000 -0.025779 -0.000027)
 98:   3189.36   0.000764    3.86  0.000075  (-0.000000  0.000080 -0.008644)
 99:   3202.51   0.000573    2.89  0.000056  ( 0.000000 -0.007470  0.000000)
100:   3205.88   0.000837    4.23  0.000081  (-0.000000 -0.000000 -0.009026)
101:   3296.19   0.011135   56.27  0.001054  (-0.000000 -0.000000 -0.032468)

--------------------------
THERMOCHEMISTRY AT 298.15K
--------------------------

Temperature         ... 298.15 K
Pressure            ... 1.00 atm
Total Mass          ... 181.30 AMU

Throughout the following assumptions are being made:
  (1) The electronic state is orbitally nondegenerate
  (2) There are no thermally accessible electronically excited states
  (3) Hindered rotations indicated by low frequency modes are not
      treated as such but are treated as vibrations and this may
      cause some error
  (4) All equations used are the standard statistical mechanics
      equations for an ideal gas
  (5) All vibrations are strictly harmonic

freq.      33.13  E(vib)   ...       0.55
freq.      45.56  E(vib)   ...       0.53
freq.      89.23  E(vib)   ...       0.47
freq.     106.64  E(vib)   ...       0.45
freq.     144.39  E(vib)   ...       0.41
freq.     200.45  E(vib)   ...       0.35
freq.     203.84  E(vib)   ...       0.35
freq.     217.03  E(vib)   ...       0.34
freq.     227.51  E(vib)   ...       0.33
freq.     269.98  E(vib)   ...       0.29
freq.     271.82  E(vib)   ...       0.29
freq.     281.92  E(vib)   ...       0.28
freq.     288.28  E(vib)   ...       0.27
freq.     289.94  E(vib)   ...       0.27
freq.     293.03  E(vib)   ...       0.27
freq.     315.31  E(vib)   ...       0.25
freq.     322.64  E(vib)   ...       0.25
freq.     394.89  E(vib)   ...       0.20
freq.     423.43  E(vib)   ...       0.18
freq.     475.33  E(vib)   ...       0.15
freq.     492.70  E(vib)   ...       0.14
freq.     551.42  E(vib)   ...       0.12
freq.     614.52  E(vib)   ...       0.10
freq.     624.49  E(vib)   ...       0.09
freq.     682.58  E(vib)   ...       0.08
freq.     713.75  E(vib)   ...       0.07
freq.     754.06  E(vib)   ...       0.06
freq.     803.54  E(vib)   ...       0.05
freq.     881.42  E(vib)   ...       0.04
freq.     915.90  E(vib)   ...       0.03
freq.     929.27  E(vib)   ...       0.03
freq.     947.10  E(vib)   ...       0.03
freq.     947.27  E(vib)   ...       0.03
freq.     967.91  E(vib)   ...       0.03
freq.     968.83  E(vib)   ...       0.03
freq.     977.44  E(vib)   ...       0.03
freq.    1048.40  E(vib)   ...       0.02
freq.    1067.34  E(vib)   ...       0.02
freq.    1072.60  E(vib)   ...       0.02
freq.    1099.50  E(vib)   ...       0.02
freq.    1132.04  E(vib)   ...       0.01
freq.    1160.75  E(vib)   ...       0.01
freq.    1180.66  E(vib)   ...       0.01
freq.    1182.11  E(vib)   ...       0.01
freq.    1201.56  E(vib)   ...       0.01
freq.    1222.16  E(vib)   ...       0.01
freq.    1233.09  E(vib)   ...       0.01
freq.    1252.66  E(vib)   ...       0.01
freq.    1350.15  E(vib)   ...       0.01
freq.    1353.15  E(vib)   ...       0.01
freq.    1353.40  E(vib)   ...       0.01
freq.    1379.66  E(vib)   ...       0.01
freq.    1397.90  E(vib)   ...       0.00
freq.    1405.17  E(vib)   ...       0.00
freq.    1405.46  E(vib)   ...       0.00
freq.    1406.73  E(vib)   ...       0.00
freq.    1409.62  E(vib)   ...       0.00
freq.    1422.63  E(vib)   ...       0.00
freq.    1429.59  E(vib)   ...       0.00
freq.    1443.46  E(vib)   ...       0.00
freq.    1443.73  E(vib)   ...       0.00
freq.    1446.32  E(vib)   ...       0.00
freq.    1448.45  E(vib)   ...       0.00
freq.    1448.47  E(vib)   ...       0.00
freq.    1458.37  E(vib)   ...       0.00
freq.    1460.73  E(vib)   ...       0.00
freq.    1460.94  E(vib)   ...       0.00
freq.    1463.48  E(vib)   ...       0.00
freq.    1463.61  E(vib)   ...       0.00
freq.    1474.87  E(vib)   ...       0.00
freq.    1479.16  E(vib)   ...       0.00
freq.    1518.69  E(vib)   ...       0.00
freq.    1530.87  E(vib)   ...       0.00
freq.    1652.17  E(vib)   ...       0.00
freq.    1728.22  E(vib)   ...       0.00
freq.    3071.04  E(vib)   ...       0.00
freq.    3071.06  E(vib)   ...       0.00
freq.    3072.78  E(vib)   ...       0.00
freq.    3072.85  E(vib)   ...       0.00
freq.    3076.75  E(vib)   ...       0.00
freq.    3077.93  E(vib)   ...       0.00
freq.    3156.62  E(vib)   ...       0.00
freq.    3156.67  E(vib)   ...       0.00
freq.    3170.31  E(vib)   ...       0.00
freq.    3170.48  E(vib)   ...       0.00
freq.    3173.92  E(vib)   ...       0.00
freq.    3173.96  E(vib)   ...       0.00
freq.    3179.47  E(vib)   ...       0.00
freq.    3179.49  E(vib)   ...       0.00
freq.    3187.28  E(vib)   ...       0.00
freq.    3187.28  E(vib)   ...       0.00
freq.    3189.32  E(vib)   ...       0.00
freq.    3189.36  E(vib)   ...       0.00
freq.    3202.51  E(vib)   ...       0.00
freq.    3205.88  E(vib)   ...       0.00
freq.    3296.19  E(vib)   ...       0.00

------------
INNER ENERGY
------------

The inner energy is: U= E(el) + E(ZPE) + E(vib) + E(rot) + E(trans)
    E(el)   - is the total energy from the electronic structure calculation
              = E(kin-el) + E(nuc-el) + E(el-el) + E(nuc-nuc)
    E(ZPE)  - the the zero temperature vibrational energy from the frequency calculation
    E(vib)  - the the finite temperature correction to E(ZPE) due to population
              of excited vibrational states
    E(rot)  - is the rotational thermal energy
    E(trans)- is the translational thermal energy

Summary of contributions to the inner energy U:
Electronic energy                ...   -540.70512655 Eh
Zero point energy                ...      0.31214451 Eh     195.87 kcal/mol
Thermal vibrational correction   ...      0.01221226 Eh       7.66 kcal/mol
Thermal rotational correction    ...      0.00141627 Eh       0.89 kcal/mol
Thermal translational correction ...      0.00141627 Eh       0.89 kcal/mol
-----------------------------------------------------------------------
Total thermal energy                   -540.37793724 Eh

Summary of corrections to the electronic energy:
(perhaps to be used in another calculation)
Total thermal correction                  0.01504481 Eh       9.44 kcal/mol
Non-thermal (ZPE) correction              0.31214451 Eh     195.87 kcal/mol
-----------------------------------------------------------------------
Total correction                          0.32718931 Eh     205.31 kcal/mol

--------
ENTHALPY
--------

The enthalpy is H = U + kB*T
                kB is Boltzmann's constant
Total free energy                 ...   -540.37793724 Eh
Thermal Enthalpy correction       ...      0.00094421 Eh       0.59 kcal/mol
-----------------------------------------------------------------------
Total Enthalpy                    ...   -540.37699303 Eh

Note: Rotational entropy computed according to Herzberg
Infrared and Raman Spectra, Chapter V,1, Van Nostrand Reinhold, 1945
Point Group:  C2v, Symmetry Number:   2
Rotational constants in cm-1:     0.035301     0.019158     0.014917

                             ****ORCA TERMINATED NORMALLY****
TOTAL RUN TIME: 0 days 0 hours 23 minutes 24 seconds 115 msec
