                         Program Version 5.0.3 -  RELEASE  -
|  1> # ORCAForces - ../2023_02/pKa_prediction/Yates_carbene_xyzs/Our_level/Uncharged/Water/2/iPrMe_Water.inp
|  2> # Basic Mode
|  3> #
|  4> ! Opt FREQ wB97X D4 Def2-SVP SlowConv TightSCF DEFGRID2 Def2/J RIJCOSX CPCM(Water)
|  5>
|  6> %maxcore 4500
|  7>
|  8> %PAL NPROCS 4 END
|  9>
| 10> %geom
| 11> Maxiter 150
| 12> END
| 13>
| 14> * xyzfile 0 1 iPrMe.xyz
| 15>
| 16>                          ****END OF INPUT****
 Total Charge           Charge          ....    0
 Multiplicity           Mult            ....    1
 Number of Electrons    NEL             ....  100
Dispersion correction           -0.005719627
FINAL SINGLE POINT ENERGY      -540.196190959492
Dispersion correction            ... Starting D4
Dispersion correction           -0.005727306
FINAL SINGLE POINT ENERGY      -540.197585608601
Dispersion correction            ... Starting D4
Dispersion correction           -0.005727522
FINAL SINGLE POINT ENERGY      -540.197648792281
Dispersion correction            ... Starting D4
Dispersion correction           -0.005726827
FINAL SINGLE POINT ENERGY      -540.197668224522
Dispersion correction            ... Starting D4
                    ***********************HURRAY********************

CARTESIAN COORDINATES (ANGSTROEM)
---------------------------------
  C      0.000001    0.681063   -1.284902
  C      0.000001   -0.681063   -1.284901
  C      0.000005    0.000000    0.900385
  N      0.000003    1.061709    0.058293
  N      0.000003   -1.061708    0.058294
  C      0.000000    1.645632   -2.424841
  C     -0.000001   -1.645633   -2.424840
  H     -0.889595    2.295772   -2.411706
  H     -0.889598   -2.295772   -2.411704
  H      0.889594   -2.295773   -2.411707
  H      0.889597    2.295771   -2.411708
  H     -0.000001    1.098690   -3.377552
  H     -0.000002   -1.098691   -3.377552
  C     -1.267586    2.763518    1.312888
  C     -1.267587   -2.763519    1.312885
  C      1.267586   -2.763522    1.312888
  C      1.267586    2.763524    1.312886
  C      0.000000    2.453876    0.525290
  C      0.000001   -2.453875    0.525290
  H     -2.164507    2.557273    0.708596
  H     -2.164507   -2.557274    0.708592
  H      2.164508   -2.557278    0.708598
  H      2.164508    2.557282    0.708595
  H     -1.314557    2.146766    2.223588
  H     -1.314560   -2.146768    2.223587
  H      1.314558   -2.146773    2.223590
  H      1.314560    2.146773    2.223588
  H     -1.284089    3.824111    1.606975
  H     -1.284090   -3.824112    1.606972
  H      1.284086   -3.824116    1.606974
  H      1.284085    3.824117    1.606973
  H     -0.000001    3.077561   -0.380947
  H      0.000001   -3.077560   -0.380947

 Multiplicity           Mult            ....    1
 Number of Electrons    NEL             ....  100
 Basis Dimension        Dim             ....  282

ORBITAL ENERGIES
----------------

  NO   OCC          E(Eh)            E(eV)
   0   2.0000     -14.438476      -392.8909
   1   2.0000     -14.438476      -392.8909
   2   2.0000     -10.306027      -280.4412
   3   2.0000     -10.305995      -280.4404
   4   2.0000     -10.290864      -280.0287
   5   2.0000     -10.290355      -280.0148
   6   2.0000     -10.273087      -279.5449
   7   2.0000     -10.273028      -279.5433
   8   2.0000     -10.268627      -279.4235
   9   2.0000     -10.259195      -279.1669
  10   2.0000     -10.259192      -279.1668
  11   2.0000     -10.259192      -279.1668
  12   2.0000     -10.259180      -279.1665
  13   2.0000      -1.139944       -31.0195
  14   2.0000      -1.034991       -28.1635
  15   2.0000      -0.935046       -25.4439
  16   2.0000      -0.899399       -24.4739
  17   2.0000      -0.886479       -24.1223
  18   2.0000      -0.838726       -22.8229
  19   2.0000      -0.804672       -21.8962
  20   2.0000      -0.804098       -21.8806
  21   2.0000      -0.784656       -21.3516
  22   2.0000      -0.765058       -20.8183
  23   2.0000      -0.695604       -18.9283
  24   2.0000      -0.679945       -18.5022
  25   2.0000      -0.643756       -17.5175
  26   2.0000      -0.618538       -16.8313
  27   2.0000      -0.581836       -15.8326
  28   2.0000      -0.557068       -15.1586
  29   2.0000      -0.555536       -15.1169
  30   2.0000      -0.549989       -14.9660
  31   2.0000      -0.535811       -14.5802
  32   2.0000      -0.533041       -14.5048
  33   2.0000      -0.519422       -14.1342
  34   2.0000      -0.509036       -13.8516
  35   2.0000      -0.508420       -13.8348
  36   2.0000      -0.506257       -13.7759
  37   2.0000      -0.492938       -13.4135
  38   2.0000      -0.487147       -13.2559
  39   2.0000      -0.486417       -13.2361
  40   2.0000      -0.472275       -12.8513
  41   2.0000      -0.466633       -12.6977
  42   2.0000      -0.459162       -12.4944
  43   2.0000      -0.452668       -12.3177
  44   2.0000      -0.440426       -11.9846
  45   2.0000      -0.439379       -11.9561
  46   2.0000      -0.429993       -11.7007
  47   2.0000      -0.360811        -9.8182
  48   2.0000      -0.315244        -8.5782
  49   2.0000      -0.301653        -8.2084
  50   0.0000       0.127687         3.4745
  51   0.0000       0.137736         3.7480
  52   0.0000       0.138741         3.7753
  53   0.0000       0.151076         4.1110
  54   0.0000       0.168617         4.5883

MULLIKEN ATOMIC CHARGES
-----------------------
   0 C :   -0.121427
   1 C :   -0.121428
   2 C :   -0.200431
   3 N :   -0.223980
   4 N :   -0.223978
   5 C :    0.069600
   6 C :    0.069602
   7 H :    0.056697
   8 H :    0.056697
   9 H :    0.056697
  10 H :    0.056697
  11 H :    0.036466
  12 H :    0.036464
  13 C :   -0.001986
  14 C :   -0.001987
  15 C :   -0.001988
  16 C :   -0.001986
  17 C :    0.000884
  18 C :    0.000887
  19 H :    0.033742
  20 H :    0.033743
  21 H :    0.033743
  22 H :    0.033742
  23 H :    0.024593
  24 H :    0.024593
  25 H :    0.024593
  26 H :    0.024593
  27 H :    0.039150
  28 H :    0.039150
  29 H :    0.039150
  30 H :    0.039150
  31 H :    0.034279
  32 H :    0.034279
Sum of atomic charges:   -0.0000000

LOEWDIN ATOMIC CHARGES
----------------------
   0 C :   -0.049331
   1 C :   -0.049332
   2 C :   -0.310998
   3 N :    0.029055
   4 N :    0.029055
   5 C :   -0.060987
   6 C :   -0.060987
   7 H :    0.041412
   8 H :    0.041412
   9 H :    0.041412
  10 H :    0.041412
  11 H :    0.043156
  12 H :    0.043156
  13 C :   -0.059593
  14 C :   -0.059593
  15 C :   -0.059593
  16 C :   -0.059593
  17 C :    0.030776
  18 C :    0.030777
  19 H :    0.028616
  20 H :    0.028616
  21 H :    0.028616
  22 H :    0.028616
  23 H :    0.023103
  24 H :    0.023103
  25 H :    0.023103
  26 H :    0.023103
  27 H :    0.032376
  28 H :    0.032376
  29 H :    0.032376
  30 H :    0.032376
  31 H :    0.031001
  32 H :    0.031001

  Mayer bond orders larger than 0.100000
B(  0-C ,  1-C ) :   1.6506 B(  0-C ,  3-N ) :   1.1276 B(  0-C ,  5-C ) :   1.0916
B(  1-C ,  4-N ) :   1.1276 B(  1-C ,  6-C ) :   1.0916 B(  2-C ,  3-N ) :   1.2527
B(  2-C ,  4-N ) :   1.2527 B(  3-N , 17-C ) :   0.8994 B(  4-N , 18-C ) :   0.8994
B(  5-C ,  7-H ) :   0.9489 B(  5-C , 10-H ) :   0.9489 B(  5-C , 11-H ) :   0.9438
B(  6-C ,  8-H ) :   0.9489 B(  6-C ,  9-H ) :   0.9489 B(  6-C , 12-H ) :   0.9438
B( 13-C , 17-C ) :   1.0732 B( 13-C , 19-H ) :   0.9685 B( 13-C , 23-H ) :   0.9636
B( 13-C , 27-H ) :   0.9711 B( 14-C , 18-C ) :   1.0732 B( 14-C , 20-H ) :   0.9685
B( 14-C , 24-H ) :   0.9636 B( 14-C , 28-H ) :   0.9711 B( 15-C , 18-C ) :   1.0732
B( 15-C , 21-H ) :   0.9685 B( 15-C , 25-H ) :   0.9636 B( 15-C , 29-H ) :   0.9711
B( 16-C , 17-C ) :   1.0732 B( 16-C , 22-H ) :   0.9685 B( 16-C , 26-H ) :   0.9636
B( 16-C , 30-H ) :   0.9711 B( 17-C , 31-H ) :   0.9390 B( 18-C , 32-H ) :   0.9390

Dispersion correction           -0.005726514
FINAL SINGLE POINT ENERGY      -540.197672129301

DIPOLE MOMENT
-------------
                                X             Y             Z
Electronic contribution:      0.00002       0.00000      -2.60673
Nuclear contribution   :     -0.00003      -0.00000       0.92918
                        -----------------------------------------
Total Dipole Moment    :     -0.00001       0.00000      -1.67755
                        -----------------------------------------
Magnitude (a.u.)       :      1.67755
Magnitude (Debye)      :      4.26398

Dispersion correction in the Hessian             ... Starting D4

VIBRATIONAL FREQUENCIES
-----------------------

Scaling factor for frequencies =  1.000000000  (already applied!)

   0:         0.00 cm**-1
   1:         0.00 cm**-1
   2:         0.00 cm**-1
   3:         0.00 cm**-1
   4:         0.00 cm**-1
   5:         0.00 cm**-1
   6:        32.99 cm**-1
   7:        44.26 cm**-1
   8:        86.00 cm**-1
   9:       113.13 cm**-1
  10:       158.47 cm**-1
  11:       212.73 cm**-1
  12:       214.33 cm**-1
  13:       226.94 cm**-1
  14:       233.41 cm**-1
  15:       261.48 cm**-1
  16:       264.06 cm**-1
  17:       278.64 cm**-1
  18:       280.07 cm**-1
  19:       283.60 cm**-1
  20:       287.18 cm**-1
  21:       325.03 cm**-1
  22:       325.23 cm**-1
  23:       405.12 cm**-1
  24:       424.05 cm**-1
  25:       481.14 cm**-1
  26:       495.30 cm**-1
  27:       552.36 cm**-1
  28:       617.99 cm**-1
  29:       637.51 cm**-1
  30:       686.03 cm**-1
  31:       698.73 cm**-1
  32:       748.31 cm**-1
  33:       812.15 cm**-1
  34:       914.89 cm**-1
  35:       932.65 cm**-1
  36:       933.91 cm**-1
  37:       934.16 cm**-1
  38:       963.09 cm**-1
  39:       963.78 cm**-1
  40:       970.91 cm**-1
  41:      1047.36 cm**-1
  42:      1068.76 cm**-1
  43:      1071.21 cm**-1
  44:      1094.27 cm**-1
  45:      1144.24 cm**-1
  46:      1148.91 cm**-1
  47:      1174.32 cm**-1
  48:      1174.49 cm**-1
  49:      1189.42 cm**-1
  50:      1219.93 cm**-1
  51:      1228.62 cm**-1
  52:      1349.66 cm**-1
  53:      1350.51 cm**-1
  54:      1350.52 cm**-1
  55:      1367.02 cm**-1
  56:      1394.27 cm**-1
  57:      1395.26 cm**-1
  58:      1401.13 cm**-1
  59:      1401.26 cm**-1
  60:      1401.75 cm**-1
  61:      1415.15 cm**-1
  62:      1436.93 cm**-1
  63:      1437.03 cm**-1
  64:      1443.39 cm**-1
  65:      1444.92 cm**-1
  66:      1447.03 cm**-1
  67:      1447.20 cm**-1
  68:      1453.56 cm**-1
  69:      1454.41 cm**-1
  70:      1456.33 cm**-1
  71:      1456.40 cm**-1
  72:      1462.95 cm**-1
  73:      1466.03 cm**-1
  74:      1470.23 cm**-1
  75:      1475.38 cm**-1
  76:      1488.72 cm**-1
  77:      1495.53 cm**-1
  78:      1753.64 cm**-1
  79:      3062.20 cm**-1
  80:      3064.35 cm**-1
  81:      3064.96 cm**-1
  82:      3064.97 cm**-1
  83:      3067.74 cm**-1
  84:      3067.81 cm**-1
  85:      3132.88 cm**-1
  86:      3133.07 cm**-1
  87:      3148.84 cm**-1
  88:      3149.04 cm**-1
  89:      3168.90 cm**-1
  90:      3168.92 cm**-1
  91:      3170.16 cm**-1
  92:      3170.18 cm**-1
  93:      3173.20 cm**-1
  94:      3173.23 cm**-1
  95:      3177.13 cm**-1
  96:      3177.43 cm**-1
  97:      3182.86 cm**-1
  98:      3187.41 cm**-1

IR SPECTRUM
-----------

 Mode   freq       eps      Int      T**2         TX        TY        TZ
       cm**-1   L/(mol*cm) km/mol    a.u.
----------------------------------------------------------------------------
  6:     32.99   0.000795    4.02  0.007516  ( 0.086697 -0.000000 -0.000000)
  7:     44.26   0.000000    0.00  0.000000  ( 0.000004 -0.000000  0.000000)
  8:     86.00   0.001038    5.25  0.003767  ( 0.061373 -0.000000 -0.000000)
  9:    113.13   0.000000    0.00  0.000000  ( 0.000000 -0.000000 -0.000000)
 10:    158.47   0.000378    1.91  0.000744  (-0.000000  0.000000 -0.027278)
 11:    212.73   0.000054    0.27  0.000080  ( 0.008918  0.000000 -0.000000)
 12:    214.33   0.000000    0.00  0.000000  ( 0.000002 -0.000000  0.000000)
 13:    226.94   0.000000    0.00  0.000000  (-0.000000  0.000002  0.000000)
 14:    233.41   0.000924    4.67  0.001235  (-0.000000  0.035141  0.000000)
 15:    261.48   0.000007    0.04  0.000009  (-0.002938 -0.000000 -0.000000)
 16:    264.06   0.000000    0.00  0.000000  ( 0.000000 -0.000000  0.000000)
 17:    278.64   0.000114    0.57  0.000127  (-0.011275 -0.000000 -0.000000)
 18:    280.07   0.000147    0.74  0.000163  (-0.000000  0.012777  0.000000)
 19:    283.60   0.000055    0.28  0.000060  ( 0.000001  0.000000 -0.007765)
 20:    287.18   0.000062    0.31  0.000067  (-0.000000  0.000000  0.008189)
 21:    325.03   0.000196    0.99  0.000188  (-0.000000  0.000032 -0.013704)
 22:    325.23   0.000515    2.60  0.000495  ( 0.000000 -0.022240 -0.000020)
 23:    405.12   0.004206   21.25  0.003240  (-0.056918  0.000000  0.000000)
 24:    424.05   0.000151    0.76  0.000111  (-0.000000 -0.010525  0.000000)
 25:    481.14   0.000094    0.47  0.000061  ( 0.000000  0.000000 -0.007800)
 26:    495.30   0.000000    0.00  0.000000  ( 0.000000 -0.000000  0.000000)
 27:    552.36   0.000610    3.08  0.000344  ( 0.000000 -0.018558 -0.000000)
 28:    617.99   0.001202    6.07  0.000607  (-0.000000  0.000000  0.024633)
 29:    637.51   0.000056    0.28  0.000028  ( 0.000000  0.005253 -0.000000)
 30:    686.03   0.000035    0.17  0.000016  (-0.003962  0.000000 -0.000000)
 31:    698.73   0.000000    0.00  0.000000  (-0.000000  0.000000 -0.000000)
 32:    748.31   0.001571    7.94  0.000655  (-0.000000  0.000000 -0.025599)
 33:    812.15   0.000590    2.98  0.000227  ( 0.000000  0.015055  0.000000)
 34:    914.89   0.000096    0.49  0.000033  (-0.000000  0.000000 -0.005730)
 35:    932.65   0.001599    8.08  0.000535  (-0.000000 -0.023133 -0.000000)
 36:    933.91   0.000000    0.00  0.000000  (-0.000001 -0.000001  0.000000)
 37:    934.16   0.001145    5.79  0.000383  ( 0.019561 -0.000001  0.000000)
 38:    963.09   0.000000    0.00  0.000000  ( 0.000000  0.000000 -0.000000)
 39:    963.78   0.000139    0.70  0.000045  ( 0.006718  0.000000 -0.000000)
 40:    970.91   0.000578    2.92  0.000186  ( 0.000000  0.000000  0.013634)
 41:   1047.36   0.000956    4.83  0.000285  (-0.016877 -0.000000 -0.000000)
 42:   1068.76   0.000000    0.00  0.000000  ( 0.000000 -0.000000  0.000000)
 43:   1071.21   0.002235   11.29  0.000651  ( 0.000000  0.025515 -0.000000)
 44:   1094.27   0.001358    6.86  0.000387  (-0.000000  0.000000 -0.019680)
 45:   1144.24   0.018065   91.29  0.004927  (-0.000000  0.070191  0.000000)
 46:   1148.91   0.001697    8.57  0.000461  (-0.000000  0.000001 -0.021468)
 47:   1174.32   0.000000    0.00  0.000000  ( 0.000002 -0.000000 -0.000000)
 48:   1174.49   0.003418   17.27  0.000908  ( 0.030135  0.000000 -0.000000)
 49:   1189.42   0.000055    0.28  0.000014  ( 0.000000  0.003790 -0.000000)
 50:   1219.93   0.000280    1.42  0.000072  (-0.000000 -0.000000  0.008464)
 51:   1228.62   0.002516   12.72  0.000639  ( 0.000000  0.025280  0.000000)
 52:   1349.66   0.001533    7.75  0.000354  (-0.000000  0.000000 -0.018826)
 53:   1350.51   0.000000    0.00  0.000000  (-0.000271 -0.000000  0.000002)
 54:   1350.52   0.000000    0.00  0.000000  ( 0.000005 -0.000000  0.000000)
 55:   1367.02   0.004392   22.20  0.001003  ( 0.000000  0.031664 -0.000000)
 56:   1394.27   0.000140    0.71  0.000031  (-0.000000 -0.005590 -0.000001)
 57:   1395.26   0.001288    6.51  0.000288  (-0.000000  0.000000 -0.016971)
 58:   1401.13   0.000000    0.00  0.000000  (-0.000063 -0.000000 -0.000001)
 59:   1401.26   0.008234   41.61  0.001834  (-0.042821  0.000000  0.000000)
 60:   1401.75   0.001302    6.58  0.000290  ( 0.000000  0.000000 -0.017025)
 61:   1415.15   0.025008  126.38  0.005515  ( 0.000000  0.074261 -0.000000)
 62:   1436.93   0.013407   67.76  0.002912  ( 0.000000  0.053960 -0.000041)
 63:   1437.03   0.011978   60.53  0.002601  ( 0.000000  0.000043  0.051002)
 64:   1443.39   0.005806   29.34  0.001255  (-0.035429  0.000000  0.000000)
 65:   1444.92   0.000000    0.00  0.000000  (-0.000002  0.000001  0.000000)
 66:   1447.03   0.000010    0.05  0.000002  (-0.001492  0.000000 -0.000000)
 67:   1447.20   0.000000    0.00  0.000000  (-0.000000 -0.000000  0.000000)
 68:   1453.56   0.000496    2.51  0.000106  (-0.000000 -0.010317  0.000002)
 69:   1454.41   0.007701   38.92  0.001652  (-0.000000 -0.000001 -0.040650)
 70:   1456.33   0.000000    0.00  0.000000  ( 0.000001 -0.000000  0.000000)
 71:   1456.40   0.000089    0.45  0.000019  (-0.004356 -0.000000 -0.000002)
 72:   1462.95   0.000764    3.86  0.000163  (-0.000000 -0.000000  0.012770)
 73:   1466.03   0.000042    0.21  0.000009  (-0.000000  0.002991  0.000000)
 74:   1470.23   0.000460    2.32  0.000098  (-0.000000 -0.000001 -0.009881)
 75:   1475.38   0.008240   41.64  0.001743  (-0.000000 -0.041749  0.000000)
 76:   1488.72   0.000795    4.02  0.000167  (-0.000000 -0.012912  0.000000)
 77:   1495.53   0.003123   15.78  0.000652  (-0.000000 -0.000001 -0.025528)
 78:   1753.64   0.000487    2.46  0.000087  ( 0.000000 -0.000000  0.009308)
 79:   3062.20   0.010138   51.23  0.001033  ( 0.000000  0.032143  0.000001)
 80:   3064.35   0.003761   19.01  0.000383  ( 0.000000  0.000002 -0.019571)
 81:   3064.96   0.012138   61.34  0.001236  ( 0.035154  0.000000  0.000000)
 82:   3064.97   0.000000    0.00  0.000000  (-0.000123 -0.000000  0.000000)
 83:   3067.74   0.001437    7.26  0.000146  ( 0.000000 -0.012090 -0.000013)
 84:   3067.81   0.003227   16.31  0.000328  ( 0.000000  0.000009 -0.018117)
 85:   3132.88   0.002774   14.02  0.000276  (-0.000000  0.016624  0.000010)
 86:   3133.07   0.001924    9.72  0.000192  ( 0.000000  0.000012 -0.013842)
 87:   3148.84   0.005313   26.85  0.000527  ( 0.022946 -0.000000  0.000000)
 88:   3149.04   0.000000    0.00  0.000000  ( 0.000017 -0.000000 -0.000000)
 89:   3168.90   0.007285   36.82  0.000717  ( 0.026784 -0.000001  0.000001)
 90:   3168.92   0.000000    0.00  0.000000  ( 0.000047 -0.000001  0.000002)
 91:   3170.16   0.003565   18.01  0.000351  ( 0.000001  0.018732  0.000086)
 92:   3170.18   0.011259   56.90  0.001108  (-0.000001 -0.000048  0.033292)
 93:   3173.20   0.000160    0.81  0.000016  (-0.003969  0.000000 -0.000000)
 94:   3173.23   0.000000    0.00  0.000000  (-0.000011  0.000001 -0.000000)
 95:   3177.13   0.018230   92.13  0.001791  ( 0.000000  0.042315 -0.000003)
 96:   3177.43   0.003830   19.35  0.000376  (-0.000000 -0.000007 -0.019394)
 97:   3182.86   0.003724   18.82  0.000365  ( 0.000000  0.019107 -0.000000)
 98:   3187.41   0.002360   11.93  0.000231  ( 0.000000  0.000000  0.015200)

--------------------------
THERMOCHEMISTRY AT 298.15K
--------------------------

Temperature         ... 298.15 K
Pressure            ... 1.00 atm
Total Mass          ... 180.29 AMU

Throughout the following assumptions are being made:
  (1) The electronic state is orbitally nondegenerate
  (2) There are no thermally accessible electronically excited states
  (3) Hindered rotations indicated by low frequency modes are not
      treated as such but are treated as vibrations and this may
      cause some error
  (4) All equations used are the standard statistical mechanics
      equations for an ideal gas
  (5) All vibrations are strictly harmonic

freq.      32.99  E(vib)   ...       0.55
freq.      44.26  E(vib)   ...       0.53
freq.      86.00  E(vib)   ...       0.48
freq.     113.13  E(vib)   ...       0.45
freq.     158.47  E(vib)   ...       0.39
freq.     212.73  E(vib)   ...       0.34
freq.     214.33  E(vib)   ...       0.34
freq.     226.94  E(vib)   ...       0.33
freq.     233.41  E(vib)   ...       0.32
freq.     261.48  E(vib)   ...       0.30
freq.     264.06  E(vib)   ...       0.29
freq.     278.64  E(vib)   ...       0.28
freq.     280.07  E(vib)   ...       0.28
freq.     283.60  E(vib)   ...       0.28
freq.     287.18  E(vib)   ...       0.27
freq.     325.03  E(vib)   ...       0.24
freq.     325.23  E(vib)   ...       0.24
freq.     405.12  E(vib)   ...       0.19
freq.     424.05  E(vib)   ...       0.18
freq.     481.14  E(vib)   ...       0.15
freq.     495.30  E(vib)   ...       0.14
freq.     552.36  E(vib)   ...       0.12
freq.     617.99  E(vib)   ...       0.09
freq.     637.51  E(vib)   ...       0.09
freq.     686.03  E(vib)   ...       0.07
freq.     698.73  E(vib)   ...       0.07
freq.     748.31  E(vib)   ...       0.06
freq.     812.15  E(vib)   ...       0.05
freq.     914.89  E(vib)   ...       0.03
freq.     932.65  E(vib)   ...       0.03
freq.     933.91  E(vib)   ...       0.03
freq.     934.16  E(vib)   ...       0.03
freq.     963.09  E(vib)   ...       0.03
freq.     963.78  E(vib)   ...       0.03
freq.     970.91  E(vib)   ...       0.03
freq.    1047.36  E(vib)   ...       0.02
freq.    1068.76  E(vib)   ...       0.02
freq.    1071.21  E(vib)   ...       0.02
freq.    1094.27  E(vib)   ...       0.02
freq.    1144.24  E(vib)   ...       0.01
freq.    1148.91  E(vib)   ...       0.01
freq.    1174.32  E(vib)   ...       0.01
freq.    1174.49  E(vib)   ...       0.01
freq.    1189.42  E(vib)   ...       0.01
freq.    1219.93  E(vib)   ...       0.01
freq.    1228.62  E(vib)   ...       0.01
freq.    1349.66  E(vib)   ...       0.01
freq.    1350.51  E(vib)   ...       0.01
freq.    1350.52  E(vib)   ...       0.01
freq.    1367.02  E(vib)   ...       0.01
freq.    1394.27  E(vib)   ...       0.00
freq.    1395.26  E(vib)   ...       0.00
freq.    1401.13  E(vib)   ...       0.00
freq.    1401.26  E(vib)   ...       0.00
freq.    1401.75  E(vib)   ...       0.00
freq.    1415.15  E(vib)   ...       0.00
freq.    1436.93  E(vib)   ...       0.00
freq.    1437.03  E(vib)   ...       0.00
freq.    1443.39  E(vib)   ...       0.00
freq.    1444.92  E(vib)   ...       0.00
freq.    1447.03  E(vib)   ...       0.00
freq.    1447.20  E(vib)   ...       0.00
freq.    1453.56  E(vib)   ...       0.00
freq.    1454.41  E(vib)   ...       0.00
freq.    1456.33  E(vib)   ...       0.00
freq.    1456.40  E(vib)   ...       0.00
freq.    1462.95  E(vib)   ...       0.00
freq.    1466.03  E(vib)   ...       0.00
freq.    1470.23  E(vib)   ...       0.00
freq.    1475.38  E(vib)   ...       0.00
freq.    1488.72  E(vib)   ...       0.00
freq.    1495.53  E(vib)   ...       0.00
freq.    1753.64  E(vib)   ...       0.00
freq.    3062.20  E(vib)   ...       0.00
freq.    3064.35  E(vib)   ...       0.00
freq.    3064.96  E(vib)   ...       0.00
freq.    3064.97  E(vib)   ...       0.00
freq.    3067.74  E(vib)   ...       0.00
freq.    3067.81  E(vib)   ...       0.00
freq.    3132.88  E(vib)   ...       0.00
freq.    3133.07  E(vib)   ...       0.00
freq.    3148.84  E(vib)   ...       0.00
freq.    3149.04  E(vib)   ...       0.00
freq.    3168.90  E(vib)   ...       0.00
freq.    3168.92  E(vib)   ...       0.00
freq.    3170.16  E(vib)   ...       0.00
freq.    3170.18  E(vib)   ...       0.00
freq.    3173.20  E(vib)   ...       0.00
freq.    3173.23  E(vib)   ...       0.00
freq.    3177.13  E(vib)   ...       0.00
freq.    3177.43  E(vib)   ...       0.00
freq.    3182.86  E(vib)   ...       0.00
freq.    3187.41  E(vib)   ...       0.00

------------
INNER ENERGY
------------

The inner energy is: U= E(el) + E(ZPE) + E(vib) + E(rot) + E(trans)
    E(el)   - is the total energy from the electronic structure calculation
              = E(kin-el) + E(nuc-el) + E(el-el) + E(nuc-nuc)
    E(ZPE)  - the the zero temperature vibrational energy from the frequency calculation
    E(vib)  - the the finite temperature correction to E(ZPE) due to population
              of excited vibrational states
    E(rot)  - is the rotational thermal energy
    E(trans)- is the translational thermal energy

Summary of contributions to the inner energy U:
Electronic energy                ...   -540.19767213 Eh
Zero point energy                ...      0.29840046 Eh     187.25 kcal/mol
Thermal vibrational correction   ...      0.01208742 Eh       7.58 kcal/mol
Thermal rotational correction    ...      0.00141627 Eh       0.89 kcal/mol
Thermal translational correction ...      0.00141627 Eh       0.89 kcal/mol
-----------------------------------------------------------------------
Total thermal energy                   -539.88435170 Eh

Summary of corrections to the electronic energy:
(perhaps to be used in another calculation)
Total thermal correction                  0.01491996 Eh       9.36 kcal/mol
Non-thermal (ZPE) correction              0.29840046 Eh     187.25 kcal/mol
-----------------------------------------------------------------------
Total correction                          0.31332043 Eh     196.61 kcal/mol

--------
ENTHALPY
--------

The enthalpy is H = U + kB*T
                kB is Boltzmann's constant
Total free energy                 ...   -539.88435170 Eh
Thermal Enthalpy correction       ...      0.00094421 Eh       0.59 kcal/mol
-----------------------------------------------------------------------
Total Enthalpy                    ...   -539.88340749 Eh

Note: Rotational entropy computed according to Herzberg
Infrared and Raman Spectra, Chapter V,1, Van Nostrand Reinhold, 1945
Point Group:  C2v, Symmetry Number:   2
Rotational constants in cm-1:     0.035701     0.019180     0.014980

Vibrational entropy computed according to the QRRHO of S. Grimme
Chem.Eur.J. 2012 18 9955

                             ****ORCA TERMINATED NORMALLY****
TOTAL RUN TIME: 0 days 0 hours 22 minutes 38 seconds 349 msec
