                         Program Version 5.0.4 -  RELEASE  -
|  1> # ORCA 5.0.4 - 6.inp # write input file
|  2> # Basic Mode
|  3> #
|  4> ! Freq wB97X Def2-SVP D4 SlowConv TightSCF DEFGRID2 Def2/J RIJCOSX
|  5>
|  6>
|  7>
|  8> %maxcore 4500
|  9>
| 10> %geom
| 11> Maxiter 150
| 12> END
| 13>
| 14> * xyzfile 0 1 6.xyz
| 15>
| 16>                          ****END OF INPUT****

CARTESIAN COORDINATES (ANGSTROEM)
---------------------------------
  C      0.000001    0.681063   -1.284902
  C      0.000001   -0.681063   -1.284901
  C      0.000005    0.000000    0.900385
  N      0.000003    1.061709    0.058293
  N      0.000003   -1.061708    0.058294
  C      0.000000    1.645632   -2.424841
  C     -0.000001   -1.645633   -2.424840
  H     -0.889595    2.295772   -2.411706
  H     -0.889598   -2.295772   -2.411704
  H      0.889594   -2.295773   -2.411707
  H      0.889597    2.295771   -2.411708
  H     -0.000001    1.098690   -3.377552
  H     -0.000002   -1.098691   -3.377552
  C     -1.267586    2.763518    1.312888
  C     -1.267587   -2.763519    1.312885
  C      1.267586   -2.763522    1.312888
  C      1.267586    2.763524    1.312886
  C      0.000000    2.453876    0.525290
  C      0.000001   -2.453875    0.525290
  H     -2.164507    2.557273    0.708596
  H     -2.164507   -2.557274    0.708592
  H      2.164508   -2.557278    0.708598
  H      2.164508    2.557282    0.708595
  H     -1.314557    2.146766    2.223588
  H     -1.314560   -2.146768    2.223587
  H      1.314558   -2.146773    2.223590
  H      1.314560    2.146773    2.223588
  H     -1.284089    3.824111    1.606975
  H     -1.284090   -3.824112    1.606972
  H      1.284086   -3.824116    1.606974
  H      1.284085    3.824117    1.606973
  H     -0.000001    3.077561   -0.380947
  H      0.000001   -3.077560   -0.380947

 Total Charge           Charge          ....    0
 Multiplicity           Mult            ....    1
 Number of Electrons    NEL             ....  100
 Basis Dimension        Dim             ....  282

ORBITAL ENERGIES
----------------

  NO   OCC          E(Eh)            E(eV)
   0   2.0000     -14.430460      -392.6728
   1   2.0000     -14.430460      -392.6728
   2   2.0000     -10.305005      -280.4134
   3   2.0000     -10.304973      -280.4126
   4   2.0000     -10.288033      -279.9516
   5   2.0000     -10.287524      -279.9378
   6   2.0000     -10.282006      -279.7876
   7   2.0000     -10.281948      -279.7860
   8   2.0000     -10.256283      -279.0876
   9   2.0000     -10.256280      -279.0876
  10   2.0000     -10.256279      -279.0876
  11   2.0000     -10.256269      -279.0873
  12   2.0000     -10.255094      -279.0553
  13   2.0000      -1.132573       -30.8189
  14   2.0000      -1.029523       -28.0147
  15   2.0000      -0.932551       -25.3760
  16   2.0000      -0.899740       -24.4832
  17   2.0000      -0.884897       -24.0793
  18   2.0000      -0.842899       -22.9364
  19   2.0000      -0.801575       -21.8120
  20   2.0000      -0.801056       -21.7978
  21   2.0000      -0.784556       -21.3489
  22   2.0000      -0.761295       -20.7159
  23   2.0000      -0.693174       -18.8622
  24   2.0000      -0.676902       -18.4194
  25   2.0000      -0.642415       -17.4810
  26   2.0000      -0.616985       -16.7890
  27   2.0000      -0.578235       -15.7346
  28   2.0000      -0.555264       -15.1095
  29   2.0000      -0.553272       -15.0553
  30   2.0000      -0.548318       -14.9205
  31   2.0000      -0.537832       -14.6351
  32   2.0000      -0.535854       -14.5813
  33   2.0000      -0.522889       -14.2285
  34   2.0000      -0.514355       -13.9963
  35   2.0000      -0.511381       -13.9154
  36   2.0000      -0.508545       -13.8382
  37   2.0000      -0.492206       -13.3936
  38   2.0000      -0.487967       -13.2783
  39   2.0000      -0.482663       -13.1339
  40   2.0000      -0.470364       -12.7993
  41   2.0000      -0.464348       -12.6356
  42   2.0000      -0.459358       -12.4998
  43   2.0000      -0.450344       -12.2545
  44   2.0000      -0.437890       -11.9156
  45   2.0000      -0.436698       -11.8832
  46   2.0000      -0.428073       -11.6485
  47   2.0000      -0.355252        -9.6669
  48   2.0000      -0.296317        -8.0632
  49   2.0000      -0.294363        -8.0100
  50   0.0000       0.129415         3.5216
  51   0.0000       0.136922         3.7258
  52   0.0000       0.141950         3.8627
  53   0.0000       0.144646         3.9360
  54   0.0000       0.165768         4.5108

MULLIKEN ATOMIC CHARGES
-----------------------
   0 C :   -0.107952
   1 C :   -0.107954
   2 C :   -0.121401
   3 N :   -0.227957
   4 N :   -0.227953
   5 C :    0.080288
   6 C :    0.080290
   7 H :    0.044061
   8 H :    0.044062
   9 H :    0.044061
  10 H :    0.044061
  11 H :    0.017995
  12 H :    0.017993
  13 C :    0.009730
  14 C :    0.009728
  15 C :    0.009728
  16 C :    0.009729
  17 C :    0.001120
  18 C :    0.001122
  19 H :    0.023463
  20 H :    0.023464
  21 H :    0.023464
  22 H :    0.023463
  23 H :    0.047272
  24 H :    0.047272
  25 H :    0.047272
  26 H :    0.047272
  27 H :    0.020902
  28 H :    0.020902
  29 H :    0.020902
  30 H :    0.020902
  31 H :    0.006348
  32 H :    0.006348
Sum of atomic charges:    0.0000000

LOEWDIN ATOMIC CHARGES
----------------------
   0 C :   -0.049628
   1 C :   -0.049628
   2 C :   -0.251805
   3 N :    0.025733
   4 N :    0.025734
   5 C :   -0.059452
   6 C :   -0.059452
   7 H :    0.035149
   8 H :    0.035149
   9 H :    0.035149
  10 H :    0.035149
  11 H :    0.035823
  12 H :    0.035823
  13 C :   -0.056973
  14 C :   -0.056973
  15 C :   -0.056973
  16 C :   -0.056974
  17 C :    0.030230
  18 C :    0.030230
  19 H :    0.025337
  20 H :    0.025337
  21 H :    0.025337
  22 H :    0.025337
  23 H :    0.033596
  24 H :    0.033596
  25 H :    0.033596
  26 H :    0.033596
  27 H :    0.024651
  28 H :    0.024651
  29 H :    0.024651
  30 H :    0.024651
  31 H :    0.019677
  32 H :    0.019677

  Mayer bond orders larger than 0.100000
B(  0-C ,  1-C ) :   1.6605 B(  0-C ,  3-N ) :   1.1220 B(  0-C ,  5-C ) :   1.0905
B(  1-C ,  4-N ) :   1.1220 B(  1-C ,  6-C ) :   1.0905 B(  2-C ,  3-N ) :   1.2348
B(  2-C ,  4-N ) :   1.2348 B(  3-N , 17-C ) :   0.9105 B(  4-N , 18-C ) :   0.9104
B(  5-C ,  7-H ) :   0.9499 B(  5-C , 10-H ) :   0.9499 B(  5-C , 11-H ) :   0.9448
B(  6-C ,  8-H ) :   0.9499 B(  6-C ,  9-H ) :   0.9499 B(  6-C , 12-H ) :   0.9448
B( 13-C , 17-C ) :   1.0736 B( 13-C , 19-H ) :   0.9671 B( 13-C , 23-H ) :   0.9640
B( 13-C , 27-H ) :   0.9703 B( 14-C , 18-C ) :   1.0736 B( 14-C , 20-H ) :   0.9671
B( 14-C , 24-H ) :   0.9640 B( 14-C , 28-H ) :   0.9703 B( 15-C , 18-C ) :   1.0736
B( 15-C , 21-H ) :   0.9671 B( 15-C , 25-H ) :   0.9640 B( 15-C , 29-H ) :   0.9703
B( 16-C , 17-C ) :   1.0736 B( 16-C , 22-H ) :   0.9671 B( 16-C , 26-H ) :   0.9640
B( 16-C , 30-H ) :   0.9703 B( 17-C , 31-H ) :   0.9398 B( 18-C , 32-H ) :   0.9398

Dispersion correction           -0.005728672
FINAL SINGLE POINT ENERGY      -540.185687262846

DIPOLE MOMENT
-------------
                                X             Y             Z
Electronic contribution:      0.00002       0.00000      -2.00123
Nuclear contribution   :     -0.00002      -0.00000       0.92918
                        -----------------------------------------
Total Dipole Moment    :     -0.00000       0.00000      -1.07205
                        -----------------------------------------
Magnitude (a.u.)       :      1.07205
Magnitude (Debye)      :      2.72493

Dispersion correction in the Hessian             ... Starting D4

VIBRATIONAL FREQUENCIES
-----------------------

Scaling factor for frequencies =  1.000000000  (already applied!)

   0:         0.00 cm**-1
   1:         0.00 cm**-1
   2:         0.00 cm**-1
   3:         0.00 cm**-1
   4:         0.00 cm**-1
   5:         0.00 cm**-1
   6:        19.53 cm**-1
   7:        35.75 cm**-1
   8:        88.26 cm**-1
   9:       114.06 cm**-1
  10:       151.23 cm**-1
  11:       214.18 cm**-1
  12:       218.82 cm**-1
  13:       231.07 cm**-1
  14:       236.82 cm**-1
  15:       252.55 cm**-1
  16:       253.64 cm**-1
  17:       273.50 cm**-1
  18:       275.45 cm**-1
  19:       283.13 cm**-1
  20:       286.39 cm**-1
  21:       321.21 cm**-1
  22:       325.50 cm**-1
  23:       398.36 cm**-1
  24:       420.46 cm**-1
  25:       480.40 cm**-1
  26:       494.09 cm**-1
  27:       552.31 cm**-1
  28:       615.95 cm**-1
  29:       637.32 cm**-1
  30:       676.93 cm**-1
  31:       695.15 cm**-1
  32:       748.84 cm**-1
  33:       813.67 cm**-1
  34:       917.41 cm**-1
  35:       934.75 cm**-1
  36:       935.50 cm**-1
  37:       935.83 cm**-1
  38:       965.48 cm**-1
  39:       966.05 cm**-1
  40:       969.73 cm**-1
  41:      1050.61 cm**-1
  42:      1070.03 cm**-1
  43:      1074.06 cm**-1
  44:      1100.04 cm**-1
  45:      1147.78 cm**-1
  46:      1149.36 cm**-1
  47:      1178.13 cm**-1
  48:      1178.19 cm**-1
  49:      1193.86 cm**-1
  50:      1225.02 cm**-1
  51:      1231.00 cm**-1
  52:      1352.29 cm**-1
  53:      1352.46 cm**-1
  54:      1352.73 cm**-1
  55:      1369.97 cm**-1
  56:      1403.14 cm**-1
  57:      1404.13 cm**-1
  58:      1408.67 cm**-1
  59:      1408.76 cm**-1
  60:      1409.07 cm**-1
  61:      1420.28 cm**-1
  62:      1442.18 cm**-1
  63:      1445.72 cm**-1
  64:      1455.70 cm**-1
  65:      1456.53 cm**-1
  66:      1459.30 cm**-1
  67:      1461.63 cm**-1
  68:      1462.92 cm**-1
  69:      1467.13 cm**-1
  70:      1470.65 cm**-1
  71:      1471.77 cm**-1
  72:      1475.48 cm**-1
  73:      1476.85 cm**-1
  74:      1482.05 cm**-1
  75:      1486.81 cm**-1
  76:      1497.74 cm**-1
  77:      1503.69 cm**-1
  78:      1755.25 cm**-1
  79:      3061.70 cm**-1
  80:      3063.61 cm**-1
  81:      3066.13 cm**-1
  82:      3066.21 cm**-1
  83:      3068.76 cm**-1
  84:      3068.94 cm**-1
  85:      3127.30 cm**-1
  86:      3127.59 cm**-1
  87:      3146.15 cm**-1
  88:      3146.23 cm**-1
  89:      3167.55 cm**-1
  90:      3167.74 cm**-1
  91:      3170.19 cm**-1
  92:      3170.41 cm**-1
  93:      3175.94 cm**-1
  94:      3175.96 cm**-1
  95:      3179.65 cm**-1
  96:      3180.13 cm**-1
  97:      3181.92 cm**-1
  98:      3185.48 cm**-1

IR SPECTRUM
-----------

 Mode   freq       eps      Int      T**2         TX        TY        TZ
       cm**-1   L/(mol*cm) km/mol    a.u.
----------------------------------------------------------------------------
  6:     19.53   0.000256    1.29  0.004083  (-0.063895  0.000000  0.000000)
  7:     35.75   0.000000    0.00  0.000000  (-0.000002  0.000000  0.000000)
  8:     88.26   0.000502    2.54  0.001775  (-0.042131 -0.000000  0.000000)
  9:    114.06   0.000000    0.00  0.000000  (-0.000000  0.000000  0.000000)
 10:    151.23   0.000119    0.60  0.000245  ( 0.000000 -0.000000  0.015644)
 11:    214.18   0.000000    0.00  0.000000  (-0.000001 -0.000000 -0.000000)
 12:    218.82   0.000050    0.25  0.000071  (-0.008454 -0.000001  0.000000)
 13:    231.07   0.000689    3.48  0.000930  ( 0.000000 -0.030504 -0.000000)
 14:    236.82   0.000000    0.00  0.000000  (-0.000001  0.000002  0.000000)
 15:    252.55   0.000010    0.05  0.000013  ( 0.003577 -0.000000  0.000000)
 16:    253.64   0.000000    0.00  0.000000  ( 0.000001 -0.000000  0.000000)
 17:    273.50   0.000039    0.20  0.000044  ( 0.006659 -0.000000  0.000000)
 18:    275.45   0.000176    0.89  0.000199  (-0.000000 -0.014114 -0.000000)
 19:    283.13   0.000011    0.05  0.000012  ( 0.000000  0.000000 -0.003406)
 20:    286.39   0.000049    0.25  0.000053  ( 0.000000 -0.000000 -0.007292)
 21:    321.21   0.000333    1.68  0.000323  ( 0.000000 -0.017980  0.000000)
 22:    325.50   0.000084    0.42  0.000080  ( 0.000000 -0.000000  0.008954)
 23:    398.36   0.002420   12.23  0.001896  ( 0.043539 -0.000000 -0.000000)
 24:    420.46   0.000160    0.81  0.000119  (-0.000000 -0.010912  0.000000)
 25:    480.40   0.000140    0.71  0.000091  ( 0.000000  0.000000 -0.009528)
 26:    494.09   0.000000    0.00  0.000000  (-0.000000  0.000000  0.000000)
 27:    552.31   0.000462    2.33  0.000261  ( 0.000000 -0.016152  0.000000)
 28:    615.95   0.000699    3.53  0.000354  (-0.000000  0.000000  0.018814)
 29:    637.32   0.000076    0.38  0.000037  ( 0.000000  0.006097 -0.000000)
 30:    676.93   0.000009    0.04  0.000004  ( 0.001994 -0.000000  0.000000)
 31:    695.15   0.000000    0.00  0.000000  ( 0.000000 -0.000000  0.000000)
 32:    748.84   0.001429    7.22  0.000596  (-0.000000  0.000000 -0.024404)
 33:    813.67   0.000526    2.66  0.000202  ( 0.000000  0.014202  0.000000)
 34:    917.41   0.000130    0.66  0.000044  (-0.000000  0.000000 -0.006643)
 35:    934.75   0.000701    3.54  0.000234  ( 0.000001 -0.015303  0.000000)
 36:    935.50   0.000000    0.00  0.000000  (-0.000004 -0.000004 -0.000000)
 37:    935.83   0.000399    2.02  0.000133  (-0.011532 -0.000001  0.000000)
 38:    965.48   0.000000    0.00  0.000000  (-0.000000  0.000000 -0.000000)
 39:    966.05   0.000112    0.57  0.000036  ( 0.006027  0.000000 -0.000000)
 40:    969.73   0.000517    2.61  0.000166  ( 0.000000  0.000000  0.012902)
 41:   1050.61   0.000200    1.01  0.000059  (-0.007700  0.000000 -0.000000)
 42:   1070.03   0.000000    0.00  0.000000  ( 0.000000  0.000000 -0.000000)
 43:   1074.06   0.000882    4.46  0.000256  ( 0.000000  0.016010 -0.000000)
 44:   1100.04   0.001067    5.39  0.000303  (-0.000000  0.000000 -0.017399)
 45:   1147.78   0.010301   52.06  0.002801  ( 0.000000 -0.052922  0.000003)
 46:   1149.36   0.000791    4.00  0.000215  (-0.000000 -0.000010 -0.014654)
 47:   1178.13   0.001016    5.13  0.000269  (-0.016404  0.000000  0.000000)
 48:   1178.19   0.000000    0.00  0.000000  ( 0.000027  0.000000  0.000000)
 49:   1193.86   0.000306    1.55  0.000080  ( 0.000000  0.008942 -0.000000)
 50:   1225.02   0.000112    0.57  0.000029  ( 0.000000 -0.000000  0.005344)
 51:   1231.00   0.001048    5.30  0.000266  ( 0.000000  0.016300  0.000000)
 52:   1352.29   0.000000    0.00  0.000000  (-0.000001 -0.000000 -0.000003)
 53:   1352.46   0.000010    0.05  0.000002  (-0.001520 -0.000000 -0.000006)
 54:   1352.73   0.000913    4.61  0.000211  ( 0.000001  0.000001 -0.014512)
 55:   1369.97   0.002421   12.24  0.000552  ( 0.000000  0.023485  0.000001)
 56:   1403.14   0.000152    0.77  0.000034  (-0.000001 -0.005824  0.000001)
 57:   1404.13   0.000343    1.73  0.000076  ( 0.000001  0.000000 -0.008735)
 58:   1408.67   0.000000    0.00  0.000000  ( 0.000014  0.000000  0.000033)
 59:   1408.76   0.001997   10.09  0.000442  ( 0.000012 -0.000001 -0.021035)
 60:   1409.07   0.006876   34.75  0.001523  (-0.039023  0.000000 -0.000006)
 61:   1420.28   0.015711   79.40  0.003452  (-0.000000  0.058755  0.000000)
 62:   1442.18   0.005705   28.83  0.001235  (-0.000000 -0.000008 -0.035136)
 63:   1445.72   0.009358   47.29  0.002020  ( 0.000001  0.044944 -0.000008)
 64:   1455.70   0.000000    0.00  0.000000  ( 0.000001 -0.000000 -0.000000)
 65:   1456.53   0.000629    3.18  0.000135  ( 0.011613 -0.000000  0.000000)
 66:   1459.30   0.000000    0.00  0.000000  (-0.000002  0.000000 -0.000000)
 67:   1461.63   0.003291   16.63  0.000703  ( 0.026508  0.000001  0.000000)
 68:   1462.92   0.001087    5.49  0.000232  (-0.000003  0.015229  0.000005)
 69:   1467.13   0.011224   56.72  0.002387  (-0.000000  0.000000  0.048862)
 70:   1470.65   0.000000    0.00  0.000000  (-0.000001 -0.000000  0.000003)
 71:   1471.77   0.000301    1.52  0.000064  ( 0.007986 -0.000001 -0.000000)
 72:   1475.48   0.000776    3.92  0.000164  ( 0.000000 -0.012810  0.000000)
 73:   1476.85   0.000009    0.05  0.000002  (-0.000000 -0.000002  0.001393)
 74:   1482.05   0.000227    1.15  0.000048  (-0.000000  0.000001  0.006921)
 75:   1486.81   0.005550   28.05  0.001165  (-0.000000 -0.034130  0.000000)
 76:   1497.74   0.000013    0.07  0.000003  (-0.000000 -0.001645 -0.000000)
 77:   1503.69   0.001101    5.57  0.000229  (-0.000000 -0.000000 -0.015118)
 78:   1755.25   0.000031    0.15  0.000005  (-0.000000 -0.000000  0.002331)
 79:   3061.70   0.008649   43.71  0.000882  (-0.000001 -0.029691 -0.000007)
 80:   3063.61   0.003499   17.68  0.000356  ( 0.000000 -0.000011  0.018878)
 81:   3066.13   0.000000    0.00  0.000000  (-0.000048  0.000000  0.000004)
 82:   3066.21   0.007972   40.29  0.000811  ( 0.028484  0.000005  0.000000)
 83:   3068.76   0.003609   18.24  0.000367  ( 0.000010 -0.019157  0.000007)
 84:   3068.94   0.001380    6.98  0.000140  ( 0.000000 -0.000011 -0.011848)
 85:   3127.30   0.002617   13.23  0.000261  (-0.000001  0.016160  0.000003)
 86:   3127.59   0.003176   16.05  0.000317  ( 0.000000  0.000003 -0.017801)
 87:   3146.15   0.000000    0.00  0.000000  ( 0.000023 -0.000000  0.000002)
 88:   3146.23   0.003937   19.90  0.000390  (-0.019761  0.000000  0.000000)
 89:   3167.55   0.000000    0.00  0.000000  (-0.000022 -0.000001  0.000007)
 90:   3167.74   0.003150   15.92  0.000310  ( 0.017615  0.000012  0.000001)
 91:   3170.19   0.009014   45.55  0.000887  (-0.000008  0.029788 -0.000004)
 92:   3170.41   0.005224   26.40  0.000514  ( 0.000001  0.000005  0.022676)
 93:   3175.94   0.001285    6.49  0.000126  ( 0.011237  0.000027 -0.000004)
 94:   3175.96   0.000000    0.00  0.000000  ( 0.000084 -0.000001 -0.000007)
 95:   3179.65   0.004219   21.32  0.000414  (-0.000010  0.020349  0.000014)
 96:   3180.13   0.001705    8.62  0.000167  ( 0.000000  0.000019 -0.012935)
 97:   3181.92   0.005331   26.94  0.000523  (-0.000003  0.022866 -0.000011)
 98:   3185.48   0.002346   11.86  0.000230  ( 0.000000  0.000016  0.015161)

--------------------------
THERMOCHEMISTRY AT 298.15K
--------------------------

Temperature         ... 298.15 K
Pressure            ... 1.00 atm
Total Mass          ... 180.29 AMU

Throughout the following assumptions are being made:
  (1) The electronic state is orbitally nondegenerate
  (2) There are no thermally accessible electronically excited states
  (3) Hindered rotations indicated by low frequency modes are not
      treated as such but are treated as vibrations and this may
      cause some error
  (4) All equations used are the standard statistical mechanics
      equations for an ideal gas
  (5) All vibrations are strictly harmonic

freq.      19.53  E(vib)   ...       0.57
freq.      35.75  E(vib)   ...       0.54
freq.      88.26  E(vib)   ...       0.48
freq.     114.06  E(vib)   ...       0.44
freq.     151.23  E(vib)   ...       0.40
freq.     214.18  E(vib)   ...       0.34
freq.     218.82  E(vib)   ...       0.33
freq.     231.07  E(vib)   ...       0.32
freq.     236.82  E(vib)   ...       0.32
freq.     252.55  E(vib)   ...       0.30
freq.     253.64  E(vib)   ...       0.30
freq.     273.50  E(vib)   ...       0.29
freq.     275.45  E(vib)   ...       0.28
freq.     283.13  E(vib)   ...       0.28
freq.     286.39  E(vib)   ...       0.27
freq.     321.21  E(vib)   ...       0.25
freq.     325.50  E(vib)   ...       0.24
freq.     398.36  E(vib)   ...       0.20
freq.     420.46  E(vib)   ...       0.18
freq.     480.40  E(vib)   ...       0.15
freq.     494.09  E(vib)   ...       0.14
freq.     552.31  E(vib)   ...       0.12
freq.     615.95  E(vib)   ...       0.10
freq.     637.32  E(vib)   ...       0.09
freq.     676.93  E(vib)   ...       0.08
freq.     695.15  E(vib)   ...       0.07
freq.     748.84  E(vib)   ...       0.06
freq.     813.67  E(vib)   ...       0.05
freq.     917.41  E(vib)   ...       0.03
freq.     934.75  E(vib)   ...       0.03
freq.     935.50  E(vib)   ...       0.03
freq.     935.83  E(vib)   ...       0.03
freq.     965.48  E(vib)   ...       0.03
freq.     966.05  E(vib)   ...       0.03
freq.     969.73  E(vib)   ...       0.03
freq.    1050.61  E(vib)   ...       0.02
freq.    1070.03  E(vib)   ...       0.02
freq.    1074.06  E(vib)   ...       0.02
freq.    1100.04  E(vib)   ...       0.02
freq.    1147.78  E(vib)   ...       0.01
freq.    1149.36  E(vib)   ...       0.01
freq.    1178.13  E(vib)   ...       0.01
freq.    1178.19  E(vib)   ...       0.01
freq.    1193.86  E(vib)   ...       0.01
freq.    1225.02  E(vib)   ...       0.01
freq.    1231.00  E(vib)   ...       0.01
freq.    1352.29  E(vib)   ...       0.01
freq.    1352.46  E(vib)   ...       0.01
freq.    1352.73  E(vib)   ...       0.01
freq.    1369.97  E(vib)   ...       0.01
freq.    1403.14  E(vib)   ...       0.00
freq.    1404.13  E(vib)   ...       0.00
freq.    1408.67  E(vib)   ...       0.00
freq.    1408.76  E(vib)   ...       0.00
freq.    1409.07  E(vib)   ...       0.00
freq.    1420.28  E(vib)   ...       0.00
freq.    1442.18  E(vib)   ...       0.00
freq.    1445.72  E(vib)   ...       0.00
freq.    1455.70  E(vib)   ...       0.00
freq.    1456.53  E(vib)   ...       0.00
freq.    1459.30  E(vib)   ...       0.00
freq.    1461.63  E(vib)   ...       0.00
freq.    1462.92  E(vib)   ...       0.00
freq.    1467.13  E(vib)   ...       0.00
freq.    1470.65  E(vib)   ...       0.00
freq.    1471.77  E(vib)   ...       0.00
freq.    1475.48  E(vib)   ...       0.00
freq.    1476.85  E(vib)   ...       0.00
freq.    1482.05  E(vib)   ...       0.00
freq.    1486.81  E(vib)   ...       0.00
freq.    1497.74  E(vib)   ...       0.00
freq.    1503.69  E(vib)   ...       0.00
freq.    1755.25  E(vib)   ...       0.00
freq.    3061.70  E(vib)   ...       0.00
freq.    3063.61  E(vib)   ...       0.00
freq.    3066.13  E(vib)   ...       0.00
freq.    3066.21  E(vib)   ...       0.00
freq.    3068.76  E(vib)   ...       0.00
freq.    3068.94  E(vib)   ...       0.00
freq.    3127.30  E(vib)   ...       0.00
freq.    3127.59  E(vib)   ...       0.00
freq.    3146.15  E(vib)   ...       0.00
freq.    3146.23  E(vib)   ...       0.00
freq.    3167.55  E(vib)   ...       0.00
freq.    3167.74  E(vib)   ...       0.00
freq.    3170.19  E(vib)   ...       0.00
freq.    3170.41  E(vib)   ...       0.00
freq.    3175.94  E(vib)   ...       0.00
freq.    3175.96  E(vib)   ...       0.00
freq.    3179.65  E(vib)   ...       0.00
freq.    3180.13  E(vib)   ...       0.00
freq.    3181.92  E(vib)   ...       0.00
freq.    3185.48  E(vib)   ...       0.00

------------
INNER ENERGY
------------

The inner energy is: U= E(el) + E(ZPE) + E(vib) + E(rot) + E(trans)
    E(el)   - is the total energy from the electronic structure calculation
              = E(kin-el) + E(nuc-el) + E(el-el) + E(nuc-nuc)
    E(ZPE)  - the the zero temperature vibrational energy from the frequency calculation
    E(vib)  - the the finite temperature correction to E(ZPE) due to population
              of excited vibrational states
    E(rot)  - is the rotational thermal energy
    E(trans)- is the translational thermal energy

Summary of contributions to the inner energy U:
Electronic energy                ...   -540.18568726 Eh
Zero point energy                ...      0.29886795 Eh     187.54 kcal/mol
Thermal vibrational correction   ...      0.01217280 Eh       7.64 kcal/mol
Thermal rotational correction    ...      0.00141627 Eh       0.89 kcal/mol
Thermal translational correction ...      0.00141627 Eh       0.89 kcal/mol
-----------------------------------------------------------------------
Total thermal energy                   -539.87181397 Eh

Summary of corrections to the electronic energy:
(perhaps to be used in another calculation)
Total thermal correction                  0.01500535 Eh       9.42 kcal/mol
Non-thermal (ZPE) correction              0.29886795 Eh     187.54 kcal/mol
-----------------------------------------------------------------------
Total correction                          0.31387330 Eh     196.96 kcal/mol

--------
ENTHALPY
--------

The enthalpy is H = U + kB*T
                kB is Boltzmann's constant
Total free energy                 ...   -539.87181397 Eh
Thermal Enthalpy correction       ...      0.00094421 Eh       0.59 kcal/mol
-----------------------------------------------------------------------
Total Enthalpy                    ...   -539.87086976 Eh

Note: Rotational entropy computed according to Herzberg
Infrared and Raman Spectra, Chapter V,1, Van Nostrand Reinhold, 1945
Point Group:  C2v, Symmetry Number:   2
Rotational constants in cm-1:     0.035701     0.019180     0.014980

Vibrational entropy computed according to the QRRHO of S. Grimme
Chem.Eur.J. 2012 18 9955

                             ****ORCA TERMINATED NORMALLY****
TOTAL RUN TIME: 0 days 0 hours 49 minutes 53 seconds 296 msec
