                         Program Version 5.0.4 -  RELEASE  -
|  1> ! SP wB97X D4 def2-SVP def2/J defgrid2
|  2> %maxcore 3000
|  3> %PAL NPROCS 4 END
|  4> * xyz 1 1
|  5> C 0.0057 0.6791 -1.8656
|  6> C -0.0057 -0.6791 -1.8656
|  7> H 0.0037 1.3948 -2.6852
|  8> H -0.0037 -1.3948 -2.6852
|  9> C 0.0068 2.4396 -0.0739
| 10> C -0.8942 2.8183 0.919
| 11> C 0.9103 3.3461 -0.6255
| 12> C -0.8785 4.1345 1.3763
| 13> H -1.6086 2.0945 1.3207
| 14> C 0.9061 4.6619 -0.168
| 15> H 1.616 3.0221 -1.3952
| 16> C 0.017 5.0557 0.8331
| 17> H -1.5809 4.4419 2.1552
| 18> H 1.6116 5.3815 -0.5912
| 19> H 0.021 6.0884 1.1917
| 20> C -0.0068 -2.4396 -0.0739
| 21> C 0.8942 -2.8183 0.919
| 22> C -0.9103 -3.3461 -0.6255
| 23> C 0.8785 -4.1345 1.3763
| 24> H 1.6086 -2.0945 1.3207
| 25> C -0.9061 -4.6619 -0.168
| 26> H -1.616 -3.0221 -1.3952
| 27> C -0.017 -5.0557 0.8331
| 28> H 1.5809 -4.4419 2.1552
| 29> H -1.6116 -5.3815 -0.5912
| 30> H -0.021 -6.0884 1.1917
| 31> C -0.0 0.0 0.2354
| 32> H 0.0 0.0 1.3261
| 33> N 0.0074 1.0818 -0.5425
| 34> N -0.0074 -1.0818 -0.5425
| 35> **                         ****END OF INPUT****

CARTESIAN COORDINATES (ANGSTROEM)
---------------------------------
  C      0.005700    0.679100   -1.865600
  C     -0.005700   -0.679100   -1.865600
  H      0.003700    1.394800   -2.685200
  H     -0.003700   -1.394800   -2.685200
  C      0.006800    2.439600   -0.073900
  C     -0.894200    2.818300    0.919000
  C      0.910300    3.346100   -0.625500
  C     -0.878500    4.134500    1.376300
  H     -1.608600    2.094500    1.320700
  C      0.906100    4.661900   -0.168000
  H      1.616000    3.022100   -1.395200
  C      0.017000    5.055700    0.833100
  H     -1.580900    4.441900    2.155200
  H      1.611600    5.381500   -0.591200
  H      0.021000    6.088400    1.191700
  C     -0.006800   -2.439600   -0.073900
  C      0.894200   -2.818300    0.919000
  C     -0.910300   -3.346100   -0.625500
  C      0.878500   -4.134500    1.376300
  H      1.608600   -2.094500    1.320700
  C     -0.906100   -4.661900   -0.168000
  H     -1.616000   -3.022100   -1.395200
  C     -0.017000   -5.055700    0.833100
  H      1.580900   -4.441900    2.155200
  H     -1.611600   -5.381500   -0.591200
  H     -0.021000   -6.088400    1.191700
  C     -0.000000    0.000000    0.235400
  H      0.000000    0.000000    1.326100
  N      0.007400    1.081800   -0.542500
  N     -0.007400   -1.081800   -0.542500

 Total Charge           Charge          ....    1
 Multiplicity           Mult            ....    1
 Number of Electrons    NEL             ....  116
 Basis Dimension        Dim             ....  303

ORBITAL ENERGIES
----------------

  NO   OCC          E(Eh)            E(eV)
   0   2.0000     -14.663584      -399.0164
   1   2.0000     -14.663574      -399.0161
   2   2.0000     -10.534900      -286.6692
   3   2.0000     -10.482702      -285.2488
   4   2.0000     -10.482115      -285.2329
   5   2.0000     -10.466013      -284.7947
   6   2.0000     -10.465965      -284.7934
   7   2.0000     -10.419476      -283.5284
   8   2.0000     -10.419475      -283.5283
   9   2.0000     -10.418384      -283.4986
  10   2.0000     -10.418379      -283.4985
  11   2.0000     -10.407321      -283.1976
  12   2.0000     -10.407320      -283.1976
  13   2.0000     -10.407009      -283.1891
  14   2.0000     -10.407009      -283.1891
  15   2.0000     -10.403774      -283.1011
  16   2.0000     -10.403774      -283.1011
  17   2.0000      -1.366626       -37.1878
  18   2.0000      -1.248672       -33.9781
  19   2.0000      -1.135013       -30.8853
  20   2.0000      -1.114129       -30.3170
  21   2.0000      -1.077550       -29.3216
  22   2.0000      -1.040541       -28.3146
  23   2.0000      -1.010016       -27.4839
  24   2.0000      -1.006802       -27.3965
  25   2.0000      -1.000849       -27.2345
  26   2.0000      -0.931811       -25.3559
  27   2.0000      -0.929274       -25.2868
  28   2.0000      -0.879791       -23.9403
  29   2.0000      -0.866927       -23.5903
  30   2.0000      -0.858291       -23.3553
  31   2.0000      -0.854008       -23.2387
  32   2.0000      -0.817763       -22.2525
  33   2.0000      -0.788235       -21.4490
  34   2.0000      -0.770498       -20.9663
  35   2.0000      -0.750582       -20.4244
  36   2.0000      -0.738859       -20.1054
  37   2.0000      -0.736565       -20.0430
  38   2.0000      -0.721270       -19.6268
  39   2.0000      -0.717946       -19.5363
  40   2.0000      -0.710321       -19.3288
  41   2.0000      -0.690204       -18.7814
  42   2.0000      -0.675119       -18.3709
  43   2.0000      -0.674997       -18.3676
  44   2.0000      -0.666664       -18.1408
  45   2.0000      -0.665524       -18.1098
  46   2.0000      -0.643268       -17.5042
  47   2.0000      -0.622387       -16.9360
  48   2.0000      -0.597025       -16.2459
  49   2.0000      -0.594740       -16.1837
  50   2.0000      -0.592794       -16.1308
  51   2.0000      -0.582822       -15.8594
  52   2.0000      -0.574037       -15.6204
  53   2.0000      -0.526029       -14.3140
  54   2.0000      -0.485098       -13.2002
  55   2.0000      -0.483303       -13.1513
  56   2.0000      -0.483194       -13.1484
  57   2.0000      -0.474707       -12.9174
  58   0.0000      -0.107961        -2.9378
  59   0.0000      -0.073739        -2.0065
  60   0.0000      -0.062836        -1.7099
  61   0.0000      -0.062293        -1.6951
  62   0.0000      -0.043955        -1.1961

MULLIKEN ATOMIC CHARGES
-----------------------
   0 C :    0.084271
   1 C :    0.084274
   2 H :    0.105677
   3 H :    0.105677
   4 C :    0.101554
   5 C :   -0.027011
   6 C :   -0.019088
   7 C :   -0.005939
   8 H :    0.030451
   9 C :   -0.007274
  10 H :    0.034414
  11 C :    0.019248
  12 H :    0.057571
  13 H :    0.058621
  14 H :    0.060049
  15 C :    0.101552
  16 C :   -0.027009
  17 C :   -0.019090
  18 C :   -0.005937
  19 H :    0.030451
  20 C :   -0.007272
  21 H :    0.034415
  22 C :    0.019245
  23 H :    0.057571
  24 H :    0.058621
  25 H :    0.060049
  26 C :    0.223003
  27 H :    0.125420
  28 N :   -0.166758
  29 N :   -0.166757
Sum of atomic charges:    1.0000000

LOEWDIN ATOMIC CHARGES
----------------------
   0 C :    0.032820
   1 C :    0.032820
   2 H :    0.062183
   3 H :    0.062183
   4 C :   -0.002468
   5 C :   -0.028307
   6 C :   -0.023982
   7 C :    0.002633
   8 H :    0.041522
   9 C :    0.003583
  10 H :    0.043970
  11 C :    0.007008
  12 H :    0.050837
  13 H :    0.051182
  14 H :    0.051416
  15 C :   -0.002468
  16 C :   -0.028307
  17 C :   -0.023982
  18 C :    0.002632
  19 H :    0.041522
  20 C :    0.003583
  21 H :    0.043970
  22 C :    0.007008
  23 H :    0.050837
  24 H :    0.051182
  25 H :    0.051416
  26 C :    0.125226
  27 H :    0.063922
  28 N :    0.113029
  29 N :    0.113030

  Mayer bond orders larger than 0.100000
B(  0-C ,  1-C ) :   1.6122 B(  0-C ,  2-H ) :   0.9815 B(  0-C , 28-N ) :   1.1606
B(  1-C ,  3-H ) :   0.9815 B(  1-C , 29-N ) :   1.1606 B(  4-C ,  5-C ) :   1.3970
B(  4-C ,  6-C ) :   1.3970 B(  4-C , 28-N ) :   0.8526 B(  5-C ,  7-C ) :   1.3997
B(  5-C ,  8-H ) :   0.9917 B(  6-C ,  9-C ) :   1.4037 B(  6-C , 10-H ) :   0.9927
B(  7-C , 11-C ) :   1.4050 B(  7-C , 12-H ) :   0.9826 B(  9-C , 11-C ) :   1.4007
B(  9-C , 13-H ) :   0.9827 B( 11-C , 14-H ) :   0.9893 B( 15-C , 16-C ) :   1.3970
B( 15-C , 17-C ) :   1.3970 B( 15-C , 29-N ) :   0.8526 B( 16-C , 18-C ) :   1.3997
B( 16-C , 19-H ) :   0.9917 B( 17-C , 20-C ) :   1.4037 B( 17-C , 21-H ) :   0.9927
B( 18-C , 22-C ) :   1.4050 B( 18-C , 23-H ) :   0.9826 B( 20-C , 22-C ) :   1.4007
B( 20-C , 24-H ) :   0.9827 B( 22-C , 25-H ) :   0.9893 B( 26-C , 27-H ) :   0.9694
B( 26-C , 28-N ) :   1.3430 B( 26-C , 29-N ) :   1.3430

Dispersion correction           -0.005735302
FINAL SINGLE POINT ENERGY      -688.044355236909

DIPOLE MOMENT
-------------
                                X             Y             Z
Electronic contribution:     -0.00000       0.00000      -1.66357
Nuclear contribution   :      0.00000      -0.00000       1.31577
                        -----------------------------------------
Total Dipole Moment    :     -0.00000       0.00000      -0.34780
                        -----------------------------------------
Magnitude (a.u.)       :      0.34780
Magnitude (Debye)      :      0.88404

Rotational constants in cm-1:     0.052774     0.006755     0.006435
Rotational constants in MHz :  1582.132824   202.514358   192.906677

                             ****ORCA TERMINATED NORMALLY****
TOTAL RUN TIME: 0 days 0 hours 1 minutes 58 seconds 945 msec
