                         Program Version 5.0.4 -  RELEASE  -
|  1> ! SP wB97X D4 def2-SVP def2/J defgrid2
|  2> %maxcore 3000
|  3> %PAL NPROCS 4 END
|  4> * xyz 0 1
|  5> C -0.0023 0.675 -1.837
|  6> C 0.0023 -0.675 -1.837
|  7> H -0.0176 1.3795 -2.6656
|  8> H 0.0176 -1.3795 -2.6656
|  9> C -0.0111 2.4203 -0.0584
| 10> C -0.5981 2.7505 1.1659
| 11> C 0.5698 3.4162 -0.8466
| 12> C -0.5948 4.0737 1.6
| 13> H -1.0517 1.9613 1.7685
| 14> C 0.5574 4.7405 -0.4087
| 15> H 1.047 3.1621 -1.7964
| 16> C -0.021 5.075 0.8147
| 17> H -1.0551 4.3248 2.5599
| 18> H 1.0152 5.5147 -1.0307
| 19> H -0.0257 6.1137 1.156
| 20> C 0.0111 -2.4203 -0.0584
| 21> C 0.5981 -2.7505 1.1659
| 22> C -0.5698 -3.4162 -0.8466
| 23> C 0.5948 -4.0737 1.6
| 24> H 1.0517 -1.9613 1.7685
| 25> C -0.5575 -4.7405 -0.4087
| 26> H -1.047 -3.1621 -1.7964
| 27> C 0.021 -5.075 0.8147
| 28> H 1.0551 -4.3248 2.5599
| 29> H -1.0152 -5.5147 -1.0307
| 30> H 0.0257 -6.1137 1.156
| 31> C -0.0 0.0 0.3513
| 32> N -0.0065 1.0631 -0.4988
| 33> N 0.0065 -1.0631 -0.4988
| 34> **                         ****END OF INPUT****

CARTESIAN COORDINATES (ANGSTROEM)
---------------------------------
  C     -0.002300    0.675000   -1.837000
  C      0.002300   -0.675000   -1.837000
  H     -0.017600    1.379500   -2.665600
  H      0.017600   -1.379500   -2.665600
  C     -0.011100    2.420300   -0.058400
  C     -0.598100    2.750500    1.165900
  C      0.569800    3.416200   -0.846600
  C     -0.594800    4.073700    1.600000
  H     -1.051700    1.961300    1.768500
  C      0.557400    4.740500   -0.408700
  H      1.047000    3.162100   -1.796400
  C     -0.021000    5.075000    0.814700
  H     -1.055100    4.324800    2.559900
  H      1.015200    5.514700   -1.030700
  H     -0.025700    6.113700    1.156000
  C      0.011100   -2.420300   -0.058400
  C      0.598100   -2.750500    1.165900
  C     -0.569800   -3.416200   -0.846600
  C      0.594800   -4.073700    1.600000
  H      1.051700   -1.961300    1.768500
  C     -0.557500   -4.740500   -0.408700
  H     -1.047000   -3.162100   -1.796400
  C      0.021000   -5.075000    0.814700
  H      1.055100   -4.324800    2.559900
  H     -1.015200   -5.514700   -1.030700
  H      0.025700   -6.113700    1.156000
  C     -0.000000    0.000000    0.351300
  N     -0.006500    1.063100   -0.498800
  N      0.006500   -1.063100   -0.498800

 Total Charge           Charge          ....    0
 Multiplicity           Mult            ....    1
 Number of Electrons    NEL             ....  116
 Basis Dimension        Dim             ....  298

ORBITAL ENERGIES
----------------

  NO   OCC          E(Eh)            E(eV)
   0   2.0000     -14.464567      -393.6009
   1   2.0000     -14.464565      -393.6008
   2   2.0000     -10.321945      -280.8744
   3   2.0000     -10.321891      -280.8729
   4   2.0000     -10.309990      -280.5491
   5   2.0000     -10.309380      -280.5325
   6   2.0000     -10.283788      -279.8361
   7   2.0000     -10.283787      -279.8361
   8   2.0000     -10.283677      -279.8331
   9   2.0000     -10.282973      -279.8139
  10   2.0000     -10.282971      -279.8139
  11   2.0000     -10.280358      -279.7428
  12   2.0000     -10.280355      -279.7427
  13   2.0000     -10.277962      -279.6776
  14   2.0000     -10.277958      -279.6774
  15   2.0000     -10.275799      -279.6187
  16   2.0000     -10.275797      -279.6187
  17   2.0000      -1.162227       -31.6258
  18   2.0000      -1.061879       -28.8952
  19   2.0000      -0.992739       -27.0138
  20   2.0000      -0.974604       -26.5203
  21   2.0000      -0.908900       -24.7324
  22   2.0000      -0.881285       -23.9810
  23   2.0000      -0.875817       -23.8322
  24   2.0000      -0.863243       -23.4900
  25   2.0000      -0.857563       -23.3355
  26   2.0000      -0.778838       -21.1933
  27   2.0000      -0.759560       -20.6687
  28   2.0000      -0.729591       -19.8532
  29   2.0000      -0.722613       -19.6633
  30   2.0000      -0.694220       -18.8907
  31   2.0000      -0.684021       -18.6132
  32   2.0000      -0.663568       -18.0566
  33   2.0000      -0.638981       -17.3876
  34   2.0000      -0.608141       -16.5483
  35   2.0000      -0.591746       -16.1022
  36   2.0000      -0.583075       -15.8663
  37   2.0000      -0.575994       -15.6736
  38   2.0000      -0.566687       -15.4203
  39   2.0000      -0.563014       -15.3204
  40   2.0000      -0.546207       -14.8631
  41   2.0000      -0.537142       -14.6164
  42   2.0000      -0.534562       -14.5462
  43   2.0000      -0.531601       -14.4656
  44   2.0000      -0.529817       -14.4170
  45   2.0000      -0.505058       -13.7433
  46   2.0000      -0.485407       -13.2086
  47   2.0000      -0.469374       -12.7723
  48   2.0000      -0.464258       -12.6331
  49   2.0000      -0.455563       -12.3965
  50   2.0000      -0.449908       -12.2426
  51   2.0000      -0.431960       -11.7542
  52   2.0000      -0.367049        -9.9879
  53   2.0000      -0.354193        -9.6381
  54   2.0000      -0.353638        -9.6230
  55   2.0000      -0.324540        -8.8312
  56   2.0000      -0.322234        -8.7684
  57   2.0000      -0.316680        -8.6173
  58   0.0000       0.055109         1.4996
  59   0.0000       0.062203         1.6926
  60   0.0000       0.068078         1.8525
  61   0.0000       0.071634         1.9493
  62   0.0000       0.121957         3.3186

MULLIKEN ATOMIC CHARGES
-----------------------
   0 C :    0.047185
   1 C :    0.047187
   2 H :    0.043888
   3 H :    0.043888
   4 C :    0.166666
   5 C :   -0.016656
   6 C :   -0.061350
   7 C :   -0.012022
   8 H :    0.025725
   9 C :   -0.013121
  10 H :    0.002320
  11 C :   -0.003241
  12 H :    0.020305
  13 H :    0.016854
  14 H :    0.016086
  15 C :    0.166673
  16 C :   -0.016657
  17 C :   -0.061354
  18 C :   -0.012019
  19 H :    0.025727
  20 C :   -0.013104
  21 H :    0.002321
  22 C :   -0.003253
  23 H :    0.020306
  24 H :    0.016840
  25 H :    0.016087
  26 C :   -0.074724
  27 N :   -0.195281
  28 N :   -0.195279
Sum of atomic charges:   -0.0000000

LOEWDIN ATOMIC CHARGES
----------------------
   0 C :   -0.021508
   1 C :   -0.021508
   2 H :    0.032809
   3 H :    0.032809
   4 C :    0.033054
   5 C :   -0.019974
   6 C :   -0.047625
   7 C :   -0.019953
   8 H :    0.040660
   9 C :   -0.022755
  10 H :    0.030418
  11 C :   -0.036728
  12 H :    0.034176
  13 H :    0.032813
  14 H :    0.031672
  15 C :    0.033052
  16 C :   -0.019972
  17 C :   -0.047623
  18 C :   -0.019957
  19 H :    0.040660
  20 C :   -0.022748
  21 H :    0.030417
  22 C :   -0.036722
  23 H :    0.034177
  24 H :    0.032806
  25 H :    0.031670
  26 C :   -0.209884
  27 N :    0.037881
  28 N :    0.037882

  Mayer bond orders larger than 0.100000
B(  0-C ,  1-C ) :   1.6690 B(  0-C ,  2-H ) :   0.9818 B(  0-C , 27-N ) :   1.0932
B(  1-C ,  3-H ) :   0.9818 B(  1-C , 28-N ) :   1.0932 B(  4-C ,  5-C ) :   1.4140
B(  4-C ,  6-C ) :   1.3938 B(  4-C , 27-N ) :   0.9434 B(  5-C ,  7-C ) :   1.3912
B(  5-C ,  8-H ) :   0.9882 B(  6-C ,  9-C ) :   1.3935 B(  6-C , 10-H ) :   0.9907
B(  7-C , 11-C ) :   1.3872 B(  7-C , 12-H ) :   0.9867 B(  9-C , 11-C ) :   1.4080
B(  9-C , 13-H ) :   0.9854 B( 11-C , 14-H ) :   0.9913 B( 15-C , 16-C ) :   1.4140
B( 15-C , 17-C ) :   1.3938 B( 15-C , 28-N ) :   0.9434 B( 16-C , 18-C ) :   1.3911
B( 16-C , 19-H ) :   0.9882 B( 17-C , 20-C ) :   1.3935 B( 17-C , 21-H ) :   0.9907
B( 18-C , 22-C ) :   1.3872 B( 18-C , 23-H ) :   0.9868 B( 20-C , 22-C ) :   1.4080
B( 20-C , 24-H ) :   0.9854 B( 22-C , 25-H ) :   0.9913 B( 26-C , 27-N ) :   1.2044
B( 26-C , 28-N ) :   1.2044

Dispersion correction           -0.005806581
FINAL SINGLE POINT ENERGY      -687.611211334095

DIPOLE MOMENT
-------------
                                X             Y             Z
Electronic contribution:     -0.00005      -0.00002      -0.84664
Nuclear contribution   :      0.00006      -0.00000      -0.04953
                        -----------------------------------------
Total Dipole Moment    :      0.00001      -0.00002      -0.89617
                        -----------------------------------------
Magnitude (a.u.)       :      0.89617
Magnitude (Debye)      :      2.27789

Rotational constants in cm-1:     0.054882     0.006881     0.006302
Rotational constants in MHz :  1645.314866   206.291262   188.935535

                             ****ORCA TERMINATED NORMALLY****
TOTAL RUN TIME: 0 days 0 hours 1 minutes 48 seconds 451 msec
