                         Program Version 5.0.4 -  RELEASE  -
|  1> ! Opt FREQ wB97X D4 Def2-SVP SlowConv TightSCF DEFGRID2 Def2/J RIJCOSX CPCM(Water)
|  2>
|  3> %MAXCORE 4000
|  4>
|  5> %scf MaxIter 20000 end
|  6>
|  7> %geom
|  8> MaxIter 500
|  9> end
| 10>
| 11> %PAL NPROCS 8 END
| 12>
| 13> * xyz 1 1
| 14> C 0.23313 0.67432 -1.84137
| 15> C 0.06687 -0.66123 -1.91529
| 16> C -0.08691 -0.0339 0.217
| 17> H 0.36122 1.38907 -2.56997
| 18> H 0.21001 -1.41795 -2.74772
| 19> H -0.10737 -0.06499 1.2831
| 20> N 0.09355 1.03631 -0.51154
| 21> N 0.00751 -1.09301 -0.60072
| 22> C 0.10788 2.3624 0.02346
| 23> C -1.16149 2.82954 0.35866
| 24> C 1.29907 3.09687 0.17703
| 25> C -1.26597 4.19948 0.78964
| 26> C 1.12756 4.43305 0.56089
| 27> C -0.12934 4.995 0.81833
| 28> H -2.24328 4.623 0.9823
| 29> H 2.0156 5.03114 0.70562
| 30> H -0.2991 6.01227 1.0996
| 31> C -0.11579 -2.37485 -0.10197
| 32> C -1.31692 -2.94187 0.26613
| 33> C 1.13544 -2.94911 0.0959
| 34> C -1.31288 -4.288 0.72745
| 35> C 1.16036 -4.31304 0.50345
| 36> C -0.03442 -4.90389 0.78451
| 37> H -2.1327 -4.93343 0.93166
| 38> H 2.08034 -4.85207 0.74566
| 39> H 0.08799 -5.93096 1.04799
| 40> C 2.5659 2.4205 -0.15083
| 41> H 2.6946 1.57951 0.51897
| 42> H 2.58712 2.07934 -1.18689
| 43> H 3.4209 3.06616 -0.08793
| 44> C 2.48702 -2.30329 -0.24793
| 45> H 2.82568 -2.8146 -1.13961
| 46> H 2.32967 -1.2315 -0.3755
| 47> H 3.2644 -2.5812 0.49075
| 48> C -2.33857 1.94951 0.13779
| 49> H -2.41377 1.7505 -0.98858
| 50> H -2.14742 1.00697 0.72125
| 51> H -3.21077 2.44586 0.60728
| 52> C -2.59612 -2.08936 0.12247
| 53> H -2.47801 -1.11651 0.59109
| 54> H -2.5588 -1.8744 -0.97777
| 55> H -3.52056 -2.53525 0.48069
| 56> **                         ****END OF INPUT****
 Total Charge           Charge          ....    1
 Multiplicity           Mult            ....    1
 Number of Electrons    NEL             ....  148
Dispersion correction           -0.009750143
FINAL SINGLE POINT ENERGY      -845.182965558775
Dispersion correction            ... Starting D4
Dispersion correction           -0.009580964
FINAL SINGLE POINT ENERGY      -845.219588001206
Dispersion correction            ... Starting D4
Dispersion correction           -0.009515858
FINAL SINGLE POINT ENERGY      -845.235531239970
Dispersion correction            ... Starting D4
FINAL SINGLE POINT ENERGY      -845.241992636980
FINAL SINGLE POINT ENERGY      -845.244249987583
FINAL SINGLE POINT ENERGY      -845.244734746376
FINAL SINGLE POINT ENERGY      -845.244899983146
FINAL SINGLE POINT ENERGY      -845.245002295966
FINAL SINGLE POINT ENERGY      -845.245142250940
FINAL SINGLE POINT ENERGY      -845.245298705651
FINAL SINGLE POINT ENERGY      -845.245498475632
FINAL SINGLE POINT ENERGY      -845.245588796629
FINAL SINGLE POINT ENERGY      -845.245744245226
FINAL SINGLE POINT ENERGY      -845.245810080077
Dispersion correction           -0.009508401
FINAL SINGLE POINT ENERGY      -845.245821782166
Dispersion correction            ... Starting D4
Dispersion correction           -0.009508642
FINAL SINGLE POINT ENERGY      -845.245823768719
Dispersion correction            ... Starting D4
                    ***********************HURRAY********************

CARTESIAN COORDINATES (ANGSTROEM)
---------------------------------
  C      0.001350    0.676374   -1.837576
  C      0.012307   -0.682871   -1.841226
  C      0.016405   -0.008887    0.260344
  H     -0.009876    1.398064   -2.652136
  H      0.013469   -1.400309   -2.659592
  H      0.023652   -0.011752    1.351334
  N      0.004194    1.074419   -0.513367
  N      0.021925   -1.087879   -0.519173
  C     -0.001564    2.434963   -0.032934
  C     -1.239639    3.045087    0.208291
  C      1.231773    3.069621    0.165538
  C     -1.218673    4.362094    0.676166
  C      1.201237    4.386021    0.634458
  C     -0.011194    5.024258    0.886919
  H     -2.166634    4.870584    0.873848
  H      2.145378    4.912625    0.800373
  H     -0.015119    6.054989    1.252258
  C      0.033286   -2.451003   -0.046745
  C     -1.194075   -3.056898    0.251620
  C      1.272161   -3.091804    0.087904
  C     -1.156264   -4.377690    0.708380
  C      1.258755   -4.411319    0.548246
  C      0.056942   -5.046405    0.854715
  H     -2.095564   -4.883742    0.949093
  H      2.207579   -4.942575    0.665369
  H      0.066157   -6.079776    1.212476
  C      2.531111    2.361505   -0.113838
  H      2.632714    1.451629    0.499207
  H      2.600249    2.053086   -1.169211
  H      3.382727    3.018411    0.107110
  C      2.559150   -2.385992   -0.248069
  H      2.601833   -2.120121   -1.316443
  H      2.666701   -1.451485    0.325518
  H      3.420824   -3.027792   -0.021669
  C     -2.534120    2.312177   -0.025363
  H     -2.620506    1.974729   -1.070445
  H     -2.611004    1.417977    0.614149
  H     -3.390343    2.962984    0.195910
  C     -2.495066   -2.314151    0.098384
  H     -2.577908   -1.500029    0.837098
  H     -2.587662   -1.859794   -0.900529
  H     -3.345035   -2.992934    0.248656

 Multiplicity           Mult            ....    1
 Number of Electrons    NEL             ....  148
 Basis Dimension        Dim             ....  399

ORBITAL ENERGIES
----------------

  NO   OCC          E(Eh)            E(eV)
   0   2.0000     -14.523697      -395.2099
   1   2.0000     -14.523662      -395.2089
   2   2.0000     -10.396947      -282.9153
   3   2.0000     -10.344180      -281.4795
   4   2.0000     -10.343593      -281.4635
   5   2.0000     -10.333223      -281.1813
   6   2.0000     -10.333179      -281.1801
   7   2.0000     -10.304714      -280.4055
   8   2.0000     -10.304672      -280.4044
   9   2.0000     -10.304653      -280.4039
  10   2.0000     -10.304572      -280.4017
  11   2.0000     -10.288446      -279.9628
  12   2.0000     -10.288441      -279.9627
  13   2.0000     -10.283468      -279.8274
  14   2.0000     -10.283459      -279.8271
  15   2.0000     -10.283453      -279.8270
  16   2.0000     -10.283453      -279.8270
  17   2.0000     -10.278195      -279.6839
  18   2.0000     -10.278163      -279.6830
  19   2.0000     -10.278139      -279.6824
  20   2.0000     -10.278056      -279.6801
  21   2.0000      -1.228276       -33.4231
  22   2.0000      -1.112584       -30.2750
  23   2.0000      -1.016644       -27.6643
  24   2.0000      -0.997195       -27.1351
  25   2.0000      -0.940901       -25.6032
  26   2.0000      -0.925753       -25.1910
  27   2.0000      -0.925316       -25.1791
  28   2.0000      -0.912892       -24.8411
  29   2.0000      -0.890174       -24.2229
  30   2.0000      -0.850258       -23.1367
  31   2.0000      -0.829020       -22.5588
  32   2.0000      -0.811558       -22.0836
  33   2.0000      -0.810483       -22.0544
  34   2.0000      -0.786116       -21.3913
  35   2.0000      -0.785735       -21.3809
  36   2.0000      -0.736468       -20.0403
  37   2.0000      -0.728884       -19.8339
  38   2.0000      -0.715291       -19.4641
  39   2.0000      -0.711861       -19.3707
  40   2.0000      -0.683392       -18.5960
  41   2.0000      -0.648126       -17.6364
  42   2.0000      -0.643270       -17.5043
  43   2.0000      -0.613549       -16.6955
  44   2.0000      -0.612564       -16.6687
  45   2.0000      -0.591704       -16.1011
  46   2.0000      -0.590760       -16.0754
  47   2.0000      -0.582451       -15.8493
  48   2.0000      -0.576096       -15.6764
  49   2.0000      -0.574813       -15.6415
  50   2.0000      -0.547347       -14.8941
  51   2.0000      -0.545657       -14.8481
  52   2.0000      -0.539838       -14.6897
  53   2.0000      -0.538679       -14.6582
  54   2.0000      -0.531594       -14.4654
  55   2.0000      -0.527758       -14.3610
  56   2.0000      -0.524847       -14.2818
  57   2.0000      -0.524804       -14.2806
  58   2.0000      -0.517492       -14.0817
  59   2.0000      -0.515244       -14.0205
  60   2.0000      -0.487953       -13.2779
  61   2.0000      -0.485425       -13.2091
  62   2.0000      -0.477575       -12.9955
  63   2.0000      -0.472512       -12.8577
  64   2.0000      -0.470069       -12.7912
  65   2.0000      -0.461982       -12.5712
  66   2.0000      -0.458519       -12.4769
  67   2.0000      -0.458193       -12.4681
  68   2.0000      -0.432837       -11.7781
  69   2.0000      -0.384602       -10.4655
  70   2.0000      -0.365170        -9.9368
  71   2.0000      -0.361185        -9.8283
  72   2.0000      -0.348356        -9.4793
  73   2.0000      -0.347549        -9.4573
  74   0.0000       0.043372         1.1802
  75   0.0000       0.046854         1.2750
  76   0.0000       0.052323         1.4238
  77   0.0000       0.062132         1.6907
  78   0.0000       0.062954         1.7131

MULLIKEN ATOMIC CHARGES
-----------------------
   0 C :    0.087718
   1 C :    0.088509
   2 C :    0.257509
   3 H :    0.111203
   4 H :    0.111247
   5 H :    0.146134
   6 N :   -0.188308
   7 N :   -0.188517
   8 C :    0.011358
   9 C :   -0.076827
  10 C :   -0.077294
  11 C :   -0.088120
  12 C :   -0.087933
  13 C :    0.020595
  14 H :    0.032517
  15 H :    0.032467
  16 H :    0.045158
  17 C :    0.011877
  18 C :   -0.077680
  19 C :   -0.077255
  20 C :   -0.087427
  21 C :   -0.088312
  22 C :    0.020139
  23 H :    0.032508
  24 H :    0.032487
  25 H :    0.045218
  26 C :    0.060068
  27 H :    0.064342
  28 H :    0.063840
  29 H :    0.049852
  30 C :    0.061714
  31 H :    0.065848
  32 H :    0.060637
  33 H :    0.049997
  34 C :    0.060861
  35 H :    0.062915
  36 H :    0.063421
  37 H :    0.049921
  38 C :    0.059258
  39 H :    0.069636
  40 H :    0.058172
  41 H :    0.050546
Sum of atomic charges:    1.0000000

LOEWDIN ATOMIC CHARGES
----------------------
   0 C :    0.031388
   1 C :    0.031275
   2 C :    0.146580
   3 H :    0.066877
   4 H :    0.066862
   5 H :    0.077593
   6 N :    0.113078
   7 N :    0.113080
   8 C :   -0.010085
   9 C :   -0.013643
  10 C :   -0.013619
  11 C :   -0.036816
  12 C :   -0.036770
  13 C :   -0.009027
  14 H :    0.042694
  15 H :    0.042699
  16 H :    0.045958
  17 C :   -0.010128
  18 C :   -0.013743
  19 C :   -0.013674
  20 C :   -0.036668
  21 C :   -0.036703
  22 C :   -0.009133
  23 H :    0.042721
  24 H :    0.042726
  25 H :    0.045943
  26 C :   -0.052133
  27 H :    0.044870
  28 H :    0.045756
  29 H :    0.044194
  30 C :   -0.052055
  31 H :    0.046549
  32 H :    0.044023
  33 H :    0.044163
  34 C :   -0.052123
  35 H :    0.045320
  36 H :    0.045165
  37 H :    0.044205
  38 C :   -0.052384
  39 H :    0.047253
  40 H :    0.043308
  41 H :    0.044426

  Mayer bond orders larger than 0.100000
B(  0-C ,  1-C ) :   1.5950 B(  0-C ,  3-H ) :   0.9882 B(  0-C ,  6-N ) :   1.1431
B(  1-C ,  4-H ) :   0.9883 B(  1-C ,  7-N ) :   1.1431 B(  2-C ,  5-H ) :   0.9665
B(  2-C ,  6-N ) :   1.3364 B(  2-C ,  7-N ) :   1.3362 B(  6-N ,  8-C ) :   0.8897
B(  7-N , 17-C ) :   0.8889 B(  8-C ,  9-C ) :   1.4226 B(  8-C , 10-C ) :   1.4223
B(  9-C , 11-C ) :   1.3991 B(  9-C , 34-C ) :   1.0467 B( 10-C , 12-C ) :   1.3996
B( 10-C , 26-C ) :   1.0466 B( 11-C , 13-C ) :   1.3815 B( 11-C , 14-H ) :   0.9940
B( 12-C , 13-C ) :   1.3813 B( 12-C , 15-H ) :   0.9940 B( 13-C , 16-H ) :   0.9936
B( 17-C , 18-C ) :   1.4238 B( 17-C , 19-C ) :   1.4211 B( 18-C , 20-C ) :   1.3976
B( 18-C , 38-C ) :   1.0480 B( 19-C , 21-C ) :   1.4003 B( 19-C , 30-C ) :   1.0472
B( 20-C , 22-C ) :   1.3828 B( 20-C , 23-H ) :   0.9942 B( 21-C , 22-C ) :   1.3802
B( 21-C , 24-H ) :   0.9941 B( 22-C , 25-H ) :   0.9936 B( 26-C , 27-H ) :   0.9544
B( 26-C , 28-H ) :   0.9540 B( 26-C , 29-H ) :   0.9549 B( 30-C , 31-H ) :   0.9522
B( 30-C , 32-H ) :   0.9556 B( 30-C , 33-H ) :   0.9551 B( 34-C , 35-H ) :   0.9544
B( 34-C , 36-H ) :   0.9537 B( 34-C , 37-H ) :   0.9552 B( 38-C , 39-H ) :   0.9519
B( 38-C , 40-H ) :   0.9562 B( 38-C , 41-H ) :   0.9547

Dispersion correction           -0.009508846
FINAL SINGLE POINT ENERGY      -845.245824514374

DIPOLE MOMENT
-------------
                                X             Y             Z
Electronic contribution:      0.00301      -0.00775      -0.72095
Nuclear contribution   :     -0.00627       0.01104       0.09115
                        -----------------------------------------
Total Dipole Moment    :     -0.00326       0.00329      -0.62979
                        -----------------------------------------
Magnitude (a.u.)       :      0.62981
Magnitude (Debye)      :      1.60085

Dispersion correction in the Hessian             ... Starting D4

VIBRATIONAL FREQUENCIES
-----------------------

Scaling factor for frequencies =  1.000000000  (already applied!)

   0:         0.00 cm**-1
   1:         0.00 cm**-1
   2:         0.00 cm**-1
   3:         0.00 cm**-1
   4:         0.00 cm**-1
   5:         0.00 cm**-1
   6:        11.83 cm**-1
   7:        15.20 cm**-1
   8:        50.67 cm**-1
   9:        53.46 cm**-1
  10:        86.65 cm**-1
  11:        88.24 cm**-1
  12:       104.79 cm**-1
  13:       113.72 cm**-1
  14:       119.21 cm**-1
  15:       125.62 cm**-1
  16:       135.81 cm**-1
  17:       193.52 cm**-1
  18:       209.94 cm**-1
  19:       234.18 cm**-1
  20:       234.71 cm**-1
  21:       281.82 cm**-1
  22:       300.15 cm**-1
  23:       332.66 cm**-1
  24:       356.03 cm**-1
  25:       356.46 cm**-1
  26:       393.43 cm**-1
  27:       426.83 cm**-1
  28:       482.05 cm**-1
  29:       493.23 cm**-1
  30:       536.70 cm**-1
  31:       537.37 cm**-1
  32:       540.72 cm**-1
  33:       545.51 cm**-1
  34:       569.27 cm**-1
  35:       593.57 cm**-1
  36:       595.41 cm**-1
  37:       620.21 cm**-1
  38:       691.50 cm**-1
  39:       692.74 cm**-1
  40:       765.73 cm**-1
  41:       768.31 cm**-1
  42:       775.06 cm**-1
  43:       776.28 cm**-1
  44:       782.98 cm**-1
  45:       809.15 cm**-1
  46:       811.20 cm**-1
  47:       899.52 cm**-1
  48:       911.29 cm**-1
  49:       941.69 cm**-1
  50:       943.52 cm**-1
  51:       944.83 cm**-1
  52:       946.15 cm**-1
  53:       970.73 cm**-1
  54:       980.34 cm**-1
  55:      1009.80 cm**-1
  56:      1010.07 cm**-1
  57:      1040.34 cm**-1
  58:      1040.85 cm**-1
  59:      1055.87 cm**-1
  60:      1056.84 cm**-1
  61:      1059.25 cm**-1
  62:      1060.93 cm**-1
  63:      1064.29 cm**-1
  64:      1064.98 cm**-1
  65:      1080.72 cm**-1
  66:      1093.24 cm**-1
  67:      1110.24 cm**-1
  68:      1120.23 cm**-1
  69:      1146.29 cm**-1
  70:      1174.27 cm**-1
  71:      1175.18 cm**-1
  72:      1246.56 cm**-1
  73:      1262.73 cm**-1
  74:      1280.78 cm**-1
  75:      1281.49 cm**-1
  76:      1299.70 cm**-1
  77:      1307.72 cm**-1
  78:      1332.36 cm**-1
  79:      1332.80 cm**-1
  80:      1382.18 cm**-1
  81:      1393.90 cm**-1
  82:      1395.44 cm**-1
  83:      1401.04 cm**-1
  84:      1406.46 cm**-1
  85:      1425.28 cm**-1
  86:      1440.54 cm**-1
  87:      1442.63 cm**-1
  88:      1447.20 cm**-1
  89:      1448.55 cm**-1
  90:      1450.62 cm**-1
  91:      1451.05 cm**-1
  92:      1451.36 cm**-1
  93:      1451.50 cm**-1
  94:      1474.09 cm**-1
  95:      1527.11 cm**-1
  96:      1535.75 cm**-1
  97:      1536.17 cm**-1
  98:      1550.20 cm**-1
  99:      1644.60 cm**-1
 100:      1645.41 cm**-1
 101:      1695.14 cm**-1
 102:      1695.81 cm**-1
 103:      1707.43 cm**-1
 104:      1708.31 cm**-1
 105:      3067.49 cm**-1
 106:      3068.36 cm**-1
 107:      3068.46 cm**-1
 108:      3069.77 cm**-1
 109:      3155.98 cm**-1
 110:      3156.49 cm**-1
 111:      3156.77 cm**-1
 112:      3157.80 cm**-1
 113:      3192.08 cm**-1
 114:      3192.64 cm**-1
 115:      3192.89 cm**-1
 116:      3193.24 cm**-1
 117:      3214.40 cm**-1
 118:      3214.52 cm**-1
 119:      3221.94 cm**-1
 120:      3221.99 cm**-1
 121:      3233.68 cm**-1
 122:      3233.80 cm**-1
 123:      3295.74 cm**-1
 124:      3300.73 cm**-1
 125:      3319.09 cm**-1

IR SPECTRUM
-----------

 Mode   freq       eps      Int      T**2         TX        TY        TZ
       cm**-1   L/(mol*cm) km/mol    a.u.
----------------------------------------------------------------------------
  6:     11.83   0.000051    0.26  0.001336  (-0.036411 -0.002251 -0.002260)
  7:     15.20   0.000032    0.16  0.000661  ( 0.024640 -0.001433 -0.007185)
  8:     50.67   0.000031    0.16  0.000192  (-0.007362  0.003319  0.011281)
  9:     53.46   0.000107    0.54  0.000623  (-0.002789  0.001899 -0.024721)
 10:     86.65   0.000008    0.04  0.000029  (-0.000466 -0.004714  0.002563)
 11:     88.24   0.000047    0.24  0.000167  (-0.001171 -0.007954  0.010113)
 12:    104.79   0.000189    0.95  0.000561  ( 0.000006  0.003162 -0.023483)
 13:    113.72   0.000214    1.08  0.000587  (-0.000344 -0.006141  0.023444)
 14:    119.21   0.000243    1.23  0.000635  (-0.002613  0.008738  0.023489)
 15:    125.62   0.000015    0.08  0.000037  ( 0.005269  0.002892  0.001005)
 16:    135.81   0.000009    0.05  0.000021  ( 0.000928 -0.001170  0.004310)
 17:    193.52   0.000107    0.54  0.000172  (-0.001213 -0.013060 -0.000162)
 18:    209.94   0.000098    0.49  0.000145  (-0.000723 -0.000363 -0.012025)
 19:    234.18   0.000001    0.01  0.000001  ( 0.000966  0.000035  0.000745)
 20:    234.71   0.000003    0.02  0.000004  ( 0.001964  0.000282  0.000568)
 21:    281.82   0.000021    0.11  0.000023  ( 0.000173  0.004819 -0.000428)
 22:    300.15   0.000002    0.01  0.000002  (-0.000853  0.000358 -0.001185)
 23:    332.66   0.003584   18.11  0.003362  (-0.002259  0.000275 -0.057940)
 24:    356.03   0.000959    4.85  0.000841  (-0.000631  0.000393 -0.028983)
 25:    356.46   0.001055    5.33  0.000924  ( 0.001304  0.000480  0.030363)
 26:    393.43   0.000028    0.14  0.000022  (-0.001526 -0.004345 -0.000855)
 27:    426.83   0.001737    8.78  0.001270  (-0.000254 -0.035640  0.000183)
 28:    482.05   0.000325    1.64  0.000211  (-0.014511  0.000187 -0.000108)
 29:    493.23   0.000000    0.00  0.000000  ( 0.000442 -0.000097 -0.000183)
 30:    536.70   0.000001    0.00  0.000000  (-0.000678  0.000115 -0.000094)
 31:    537.37   0.000052    0.26  0.000030  ( 0.005445 -0.000577 -0.000170)
 32:    540.72   0.001157    5.85  0.000668  ( 0.025829 -0.000113 -0.000733)
 33:    545.51   0.000003    0.02  0.000002  (-0.001177 -0.000058  0.000659)
 34:    569.27   0.000720    3.64  0.000395  ( 0.000262  0.000110  0.019861)
 35:    593.57   0.000023    0.12  0.000012  ( 0.000007  0.002580 -0.002315)
 36:    595.41   0.000350    1.77  0.000183  (-0.000088 -0.013535 -0.000479)
 37:    620.21   0.000126    0.63  0.000063  ( 0.000168  0.007947 -0.000108)
 38:    691.50   0.013266   67.04  0.005987  (-0.077363  0.000299  0.001211)
 39:    692.74   0.000350    1.77  0.000158  (-0.012488 -0.000384  0.001236)
 40:    765.73   0.008631   43.62  0.003517  (-0.059302 -0.000590 -0.000506)
 41:    768.31   0.000047    0.24  0.000019  (-0.003016 -0.000195  0.003183)
 42:    775.06   0.000103    0.52  0.000041  (-0.001296 -0.000658  0.006261)
 43:    776.28   0.000184    0.93  0.000074  ( 0.000026  0.008513  0.001143)
 44:    782.98   0.000073    0.37  0.000029  ( 0.000747 -0.004684 -0.002576)
 45:    809.15   0.011927   60.28  0.004600  (-0.005794 -0.018320 -0.065045)
 46:    811.20   0.008366   42.28  0.003219  ( 0.000720 -0.024036  0.051384)
 47:    899.52   0.005525   27.92  0.001917  (-0.043761 -0.000391  0.001187)
 48:    911.29   0.000001    0.00  0.000000  (-0.000370  0.000161  0.000242)
 49:    941.69   0.000030    0.15  0.000010  ( 0.002837 -0.000548  0.001211)
 50:    943.52   0.000170    0.86  0.000056  ( 0.007444 -0.000090  0.000874)
 51:    944.83   0.000036    0.18  0.000012  ( 0.003398  0.000351  0.000309)
 52:    946.15   0.000827    4.18  0.000273  (-0.016369  0.000624  0.002066)
 53:    970.73   0.003716   18.78  0.001195  (-0.000060 -0.034563 -0.000071)
 54:    980.34   0.000030    0.15  0.000010  ( 0.000026 -0.000224  0.003086)
 55:   1009.80   0.001653    8.35  0.000511  ( 0.000152  0.022523  0.001904)
 56:   1010.07   0.000320    1.62  0.000099  ( 0.000044  0.005070 -0.008550)
 57:   1040.34   0.000555    2.81  0.000167  (-0.000383 -0.002355  0.012682)
 58:   1040.85   0.000559    2.82  0.000167  ( 0.002926 -0.001714 -0.012490)
 59:   1055.87   0.000091    0.46  0.000027  (-0.000735 -0.000746  0.005092)
 60:   1056.84   0.000930    4.70  0.000275  ( 0.002249 -0.001964 -0.016300)
 61:   1059.25   0.002319   11.72  0.000683  ( 0.000811  0.005950 -0.025440)
 62:   1060.93   0.002068   10.45  0.000608  (-0.006299  0.006452  0.022958)
 63:   1064.29   0.000139    0.70  0.000041  ( 0.003610 -0.000227  0.005255)
 64:   1064.98   0.000827    4.18  0.000242  ( 0.014786 -0.000378  0.004852)
 65:   1080.72   0.007437   37.58  0.002147  ( 0.000193 -0.046334 -0.000757)
 66:   1093.24   0.004413   22.30  0.001260  (-0.000478 -0.000143 -0.035488)
 67:   1110.24   0.000071    0.36  0.000020  ( 0.000217 -0.000959  0.004371)
 68:   1120.23   0.010495   53.04  0.002924  ( 0.000259 -0.054068  0.000455)
 69:   1146.29   0.000149    0.75  0.000041  (-0.000021  0.000281 -0.006367)
 70:   1174.27   0.000961    4.86  0.000255  ( 0.015980  0.000088 -0.000048)
 71:   1175.18   0.000983    4.97  0.000261  (-0.016141  0.000518  0.000492)
 72:   1246.56   0.012439   62.86  0.003114  ( 0.000365 -0.055801 -0.000154)
 73:   1262.73   0.008355   42.23  0.002065  ( 0.000244 -0.045441  0.000009)
 74:   1280.78   0.000014    0.07  0.000003  ( 0.001834 -0.000000  0.000004)
 75:   1281.49   0.000029    0.15  0.000007  (-0.002651 -0.000326 -0.000040)
 76:   1299.70   0.000008    0.04  0.000002  ( 0.000219  0.000172 -0.001367)
 77:   1307.72   0.001601    8.09  0.000382  ( 0.000325 -0.019542 -0.000329)
 78:   1332.36   0.000742    3.75  0.000174  (-0.013170 -0.000498 -0.000440)
 79:   1332.80   0.007807   39.45  0.001828  ( 0.042717 -0.000262 -0.001736)
 80:   1382.18   0.000823    4.16  0.000186  (-0.000973  0.000587  0.013585)
 81:   1393.90   0.000025    0.12  0.000006  (-0.001349 -0.001752  0.000801)
 82:   1395.44   0.000089    0.45  0.000020  ( 0.001123 -0.004243  0.000757)
 83:   1401.04   0.001492    7.54  0.000332  ( 0.000516 -0.018196 -0.000959)
 84:   1406.46   0.000051    0.26  0.000011  ( 0.001689 -0.002540 -0.001420)
 85:   1425.28   0.000343    1.73  0.000075  ( 0.000926  0.008568 -0.000862)
 86:   1440.54   0.002874   14.52  0.000623  (-0.001256 -0.001013  0.024899)
 87:   1442.63   0.001771    8.95  0.000383  ( 0.001756  0.019183  0.003456)
 88:   1447.20   0.000720    3.64  0.000155  (-0.012135  0.001161 -0.002598)
 89:   1448.55   0.002524   12.76  0.000544  ( 0.021732 -0.000846  0.008414)
 90:   1450.62   0.009293   46.96  0.001999  ( 0.005060  0.012455 -0.042643)
 91:   1451.05   0.000804    4.06  0.000173  ( 0.012788 -0.002684  0.001488)
 92:   1451.36   0.000881    4.45  0.000189  ( 0.012993 -0.004483 -0.000678)
 93:   1451.50   0.004793   24.22  0.001030  ( 0.001427  0.025511  0.019430)
 94:   1474.09   0.000390    1.97  0.000083  ( 0.000849 -0.000341 -0.009045)
 95:   1527.11   0.012562   63.48  0.002567  (-0.000283 -0.050664 -0.000033)
 96:   1535.75   0.000070    0.36  0.000014  (-0.002892 -0.002172 -0.001110)
 97:   1536.17   0.011561   58.42  0.002348  (-0.048398  0.000954  0.002280)
 98:   1550.20   0.003169   16.02  0.000638  ( 0.000202 -0.000235  0.025256)
 99:   1644.60   0.003567   18.03  0.000677  ( 0.000382  0.022569 -0.012940)
100:   1645.41   0.052848  267.07  0.010023  (-0.001017  0.100064  0.003020)
101:   1695.14   0.002580   13.04  0.000475  (-0.000085  0.021778 -0.000772)
102:   1695.81   0.000333    1.68  0.000061  (-0.000071  0.003070  0.007199)
103:   1707.43   0.000055    0.28  0.000010  ( 0.003048  0.000359  0.000773)
104:   1708.31   0.006294   31.81  0.001150  ( 0.033870 -0.000041 -0.001596)
105:   3067.49   0.005569   28.14  0.000567  (-0.023679  0.001420 -0.001958)
106:   3068.36   0.001241    6.27  0.000126  (-0.000845 -0.011005 -0.002107)
107:   3068.46   0.002692   13.61  0.000274  ( 0.014119  0.006881 -0.005205)
108:   3069.77   0.002696   13.62  0.000274  ( 0.004401 -0.015917 -0.001158)
109:   3155.98   0.002008   10.15  0.000199  (-0.002749  0.001802 -0.013701)
110:   3156.49   0.001819    9.19  0.000180  ( 0.000609  0.002701  0.013120)
111:   3156.77   0.000326    1.65  0.000032  (-0.001728 -0.004848 -0.002400)
112:   3157.80   0.000659    3.33  0.000065  ( 0.000295  0.006240 -0.005110)
113:   3192.08   0.001999   10.10  0.000195  (-0.010753 -0.008076  0.003812)
114:   3192.64   0.002213   11.18  0.000216  (-0.010695  0.009787  0.002468)
115:   3192.89   0.001680    8.49  0.000164  ( 0.011336 -0.004543  0.003878)
116:   3193.24   0.001873    9.47  0.000183  ( 0.004828  0.012503  0.001853)
117:   3214.40   0.000045    0.23  0.000004  (-0.000431  0.001915 -0.000722)
118:   3214.52   0.000037    0.19  0.000004  ( 0.000175  0.001703  0.000813)
119:   3221.94   0.001412    7.14  0.000137  (-0.011668 -0.000126  0.000785)
120:   3221.99   0.001419    7.17  0.000137  (-0.011721 -0.000026  0.000219)
121:   3233.68   0.001693    8.56  0.000163  ( 0.000397 -0.012290  0.003493)
122:   3233.80   0.001393    7.04  0.000134  (-0.000041 -0.010855 -0.004071)
123:   3295.74   0.015271   77.17  0.001446  (-0.000336  0.000145 -0.038024)
124:   3300.73   0.007661   38.72  0.000724  (-0.000169  0.026912  0.000048)
125:   3319.09   0.004042   20.43  0.000380  (-0.000207 -0.000045 -0.019494)

--------------------------
THERMOCHEMISTRY AT 298.15K
--------------------------

Temperature         ... 298.15 K
Pressure            ... 1.00 atm
Total Mass          ... 277.39 AMU

Throughout the following assumptions are being made:
  (1) The electronic state is orbitally nondegenerate
  (2) There are no thermally accessible electronically excited states
  (3) Hindered rotations indicated by low frequency modes are not
      treated as such but are treated as vibrations and this may
      cause some error
  (4) All equations used are the standard statistical mechanics
      equations for an ideal gas
  (5) All vibrations are strictly harmonic

freq.      11.83  E(vib)   ...       0.58
freq.      15.20  E(vib)   ...       0.57
freq.      50.67  E(vib)   ...       0.52
freq.      53.46  E(vib)   ...       0.52
freq.      86.65  E(vib)   ...       0.48
freq.      88.24  E(vib)   ...       0.48
freq.     104.79  E(vib)   ...       0.46
freq.     113.72  E(vib)   ...       0.44
freq.     119.21  E(vib)   ...       0.44
freq.     125.62  E(vib)   ...       0.43
freq.     135.81  E(vib)   ...       0.42
freq.     193.52  E(vib)   ...       0.36
freq.     209.94  E(vib)   ...       0.34
freq.     234.18  E(vib)   ...       0.32
freq.     234.71  E(vib)   ...       0.32
freq.     281.82  E(vib)   ...       0.28
freq.     300.15  E(vib)   ...       0.26
freq.     332.66  E(vib)   ...       0.24
freq.     356.03  E(vib)   ...       0.22
freq.     356.46  E(vib)   ...       0.22
freq.     393.43  E(vib)   ...       0.20
freq.     426.83  E(vib)   ...       0.18
freq.     482.05  E(vib)   ...       0.15
freq.     493.23  E(vib)   ...       0.14
freq.     536.70  E(vib)   ...       0.12
freq.     537.37  E(vib)   ...       0.12
freq.     540.72  E(vib)   ...       0.12
freq.     545.51  E(vib)   ...       0.12
freq.     569.27  E(vib)   ...       0.11
freq.     593.57  E(vib)   ...       0.10
freq.     595.41  E(vib)   ...       0.10
freq.     620.21  E(vib)   ...       0.09
freq.     691.50  E(vib)   ...       0.07
freq.     692.74  E(vib)   ...       0.07
freq.     765.73  E(vib)   ...       0.06
freq.     768.31  E(vib)   ...       0.06
freq.     775.06  E(vib)   ...       0.05
freq.     776.28  E(vib)   ...       0.05
freq.     782.98  E(vib)   ...       0.05
freq.     809.15  E(vib)   ...       0.05
freq.     811.20  E(vib)   ...       0.05
freq.     899.52  E(vib)   ...       0.03
freq.     911.29  E(vib)   ...       0.03
freq.     941.69  E(vib)   ...       0.03
freq.     943.52  E(vib)   ...       0.03
freq.     944.83  E(vib)   ...       0.03
freq.     946.15  E(vib)   ...       0.03
freq.     970.73  E(vib)   ...       0.03
freq.     980.34  E(vib)   ...       0.02
freq.    1009.80  E(vib)   ...       0.02
freq.    1010.07  E(vib)   ...       0.02
freq.    1040.34  E(vib)   ...       0.02
freq.    1040.85  E(vib)   ...       0.02
freq.    1055.87  E(vib)   ...       0.02
freq.    1056.84  E(vib)   ...       0.02
freq.    1059.25  E(vib)   ...       0.02
freq.    1060.93  E(vib)   ...       0.02
freq.    1064.29  E(vib)   ...       0.02
freq.    1064.98  E(vib)   ...       0.02
freq.    1080.72  E(vib)   ...       0.02
freq.    1093.24  E(vib)   ...       0.02
freq.    1110.24  E(vib)   ...       0.02
freq.    1120.23  E(vib)   ...       0.01
freq.    1146.29  E(vib)   ...       0.01
freq.    1174.27  E(vib)   ...       0.01
freq.    1175.18  E(vib)   ...       0.01
freq.    1246.56  E(vib)   ...       0.01
freq.    1262.73  E(vib)   ...       0.01
freq.    1280.78  E(vib)   ...       0.01
freq.    1281.49  E(vib)   ...       0.01
freq.    1299.70  E(vib)   ...       0.01
freq.    1307.72  E(vib)   ...       0.01
freq.    1332.36  E(vib)   ...       0.01
freq.    1332.80  E(vib)   ...       0.01
freq.    1382.18  E(vib)   ...       0.01
freq.    1393.90  E(vib)   ...       0.00
freq.    1395.44  E(vib)   ...       0.00
freq.    1401.04  E(vib)   ...       0.00
freq.    1406.46  E(vib)   ...       0.00
freq.    1425.28  E(vib)   ...       0.00
freq.    1440.54  E(vib)   ...       0.00
freq.    1442.63  E(vib)   ...       0.00
freq.    1447.20  E(vib)   ...       0.00
freq.    1448.55  E(vib)   ...       0.00
freq.    1450.62  E(vib)   ...       0.00
freq.    1451.05  E(vib)   ...       0.00
freq.    1451.36  E(vib)   ...       0.00
freq.    1451.50  E(vib)   ...       0.00
freq.    1474.09  E(vib)   ...       0.00
freq.    1527.11  E(vib)   ...       0.00
freq.    1535.75  E(vib)   ...       0.00
freq.    1536.17  E(vib)   ...       0.00
freq.    1550.20  E(vib)   ...       0.00
freq.    1644.60  E(vib)   ...       0.00
freq.    1645.41  E(vib)   ...       0.00
freq.    1695.14  E(vib)   ...       0.00
freq.    1695.81  E(vib)   ...       0.00
freq.    1707.43  E(vib)   ...       0.00
freq.    1708.31  E(vib)   ...       0.00
freq.    3067.49  E(vib)   ...       0.00
freq.    3068.36  E(vib)   ...       0.00
freq.    3068.46  E(vib)   ...       0.00
freq.    3069.77  E(vib)   ...       0.00
freq.    3155.98  E(vib)   ...       0.00
freq.    3156.49  E(vib)   ...       0.00
freq.    3156.77  E(vib)   ...       0.00
freq.    3157.80  E(vib)   ...       0.00
freq.    3192.08  E(vib)   ...       0.00
freq.    3192.64  E(vib)   ...       0.00
freq.    3192.89  E(vib)   ...       0.00
freq.    3193.24  E(vib)   ...       0.00
freq.    3214.40  E(vib)   ...       0.00
freq.    3214.52  E(vib)   ...       0.00
freq.    3221.94  E(vib)   ...       0.00
freq.    3221.99  E(vib)   ...       0.00
freq.    3233.68  E(vib)   ...       0.00
freq.    3233.80  E(vib)   ...       0.00
freq.    3295.74  E(vib)   ...       0.00
freq.    3300.73  E(vib)   ...       0.00
freq.    3319.09  E(vib)   ...       0.00

------------
INNER ENERGY
------------

The inner energy is: U= E(el) + E(ZPE) + E(vib) + E(rot) + E(trans)
    E(el)   - is the total energy from the electronic structure calculation
              = E(kin-el) + E(nuc-el) + E(el-el) + E(nuc-nuc)
    E(ZPE)  - the the zero temperature vibrational energy from the frequency calculation
    E(vib)  - the the finite temperature correction to E(ZPE) due to population
              of excited vibrational states
    E(rot)  - is the rotational thermal energy
    E(trans)- is the translational thermal energy

Summary of contributions to the inner energy U:
Electronic energy                ...   -845.24582451 Eh
Zero point energy                ...      0.35879580 Eh     225.15 kcal/mol
Thermal vibrational correction   ...      0.01695833 Eh      10.64 kcal/mol
Thermal rotational correction    ...      0.00141627 Eh       0.89 kcal/mol
Thermal translational correction ...      0.00141627 Eh       0.89 kcal/mol
-----------------------------------------------------------------------
Total thermal energy                   -844.86723784 Eh

Rotational constants in cm-1:     0.023099     0.005958     0.005197

                             ****ORCA TERMINATED NORMALLY****
TOTAL RUN TIME: 0 days 0 hours 59 minutes 26 seconds 676 msec
