                         Program Version 5.0.4 -  RELEASE  -
|  1> # ORCA 5.0.4 - 8+.inp # write input file
|  2> # Basic Mode
|  3> #
|  4> ! Freq wB97X Def2-SVP D4 SlowConv TightSCF DEFGRID2 Def2/J RIJCOSX
|  5>
|  6>
|  7>
|  8> %maxcore 4500
|  9>
| 10> %geom
| 11> Maxiter 150
| 12> END
| 13>
| 14> * xyzfile 1 1 8+.xyz
| 15>
| 16>                          ****END OF INPUT****

CARTESIAN COORDINATES (ANGSTROEM)
---------------------------------
  C      0.001350    0.676374   -1.837576
  C      0.012307   -0.682871   -1.841226
  C      0.016405   -0.008887    0.260344
  H     -0.009876    1.398064   -2.652136
  H      0.013469   -1.400309   -2.659592
  H      0.023652   -0.011752    1.351334
  N      0.004194    1.074419   -0.513367
  N      0.021925   -1.087879   -0.519173
  C     -0.001564    2.434963   -0.032934
  C     -1.239639    3.045087    0.208291
  C      1.231773    3.069621    0.165538
  C     -1.218673    4.362094    0.676166
  C      1.201237    4.386021    0.634458
  C     -0.011194    5.024258    0.886919
  H     -2.166634    4.870584    0.873848
  H      2.145378    4.912625    0.800373
  H     -0.015119    6.054989    1.252258
  C      0.033286   -2.451003   -0.046745
  C     -1.194075   -3.056898    0.251620
  C      1.272161   -3.091804    0.087904
  C     -1.156264   -4.377690    0.708380
  C      1.258755   -4.411319    0.548246
  C      0.056942   -5.046405    0.854715
  H     -2.095564   -4.883742    0.949093
  H      2.207579   -4.942575    0.665369
  H      0.066157   -6.079776    1.212476
  C      2.531111    2.361505   -0.113838
  H      2.632714    1.451629    0.499207
  H      2.600249    2.053086   -1.169211
  H      3.382727    3.018411    0.107110
  C      2.559150   -2.385992   -0.248069
  H      2.601833   -2.120121   -1.316443
  H      2.666701   -1.451485    0.325518
  H      3.420824   -3.027792   -0.021669
  C     -2.534120    2.312177   -0.025363
  H     -2.620506    1.974729   -1.070445
  H     -2.611004    1.417977    0.614149
  H     -3.390343    2.962984    0.195910
  C     -2.495066   -2.314151    0.098384
  H     -2.577908   -1.500029    0.837098
  H     -2.587662   -1.859794   -0.900529
  H     -3.345035   -2.992934    0.248656

 Total Charge           Charge          ....    1
 Multiplicity           Mult            ....    1
 Number of Electrons    NEL             ....  148
 Basis Dimension        Dim             ....  399

ORBITAL ENERGIES
----------------

  NO   OCC          E(Eh)            E(eV)
   0   2.0000     -14.652450      -398.7134
   1   2.0000     -14.652423      -398.7127
   2   2.0000     -10.527923      -286.4793
   3   2.0000     -10.476414      -285.0777
   4   2.0000     -10.475827      -285.0617
   5   2.0000     -10.446313      -284.2586
   6   2.0000     -10.446265      -284.2573
   7   2.0000     -10.415699      -283.4256
   8   2.0000     -10.415588      -283.4226
   9   2.0000     -10.415564      -283.4219
  10   2.0000     -10.415450      -283.4188
  11   2.0000     -10.395404      -282.8733
  12   2.0000     -10.395102      -282.8651
  13   2.0000     -10.395065      -282.8641
  14   2.0000     -10.394853      -282.8583
  15   2.0000     -10.394634      -282.8524
  16   2.0000     -10.394632      -282.8523
  17   2.0000     -10.391322      -282.7623
  18   2.0000     -10.391304      -282.7618
  19   2.0000     -10.391293      -282.7614
  20   2.0000     -10.391287      -282.7613
  21   2.0000      -1.357468       -36.9386
  22   2.0000      -1.238159       -33.6920
  23   2.0000      -1.129552       -30.7367
  24   2.0000      -1.108195       -30.1555
  25   2.0000      -1.068239       -29.0683
  26   2.0000      -1.038355       -28.2551
  27   2.0000      -1.037805       -28.2401
  28   2.0000      -1.029640       -28.0179
  29   2.0000      -1.001760       -27.2593
  30   2.0000      -0.967063       -26.3151
  31   2.0000      -0.946228       -25.7482
  32   2.0000      -0.923066       -25.1179
  33   2.0000      -0.921860       -25.0851
  34   2.0000      -0.913278       -24.8516
  35   2.0000      -0.901622       -24.5344
  36   2.0000      -0.868535       -23.6340
  37   2.0000      -0.842751       -22.9324
  38   2.0000      -0.829683       -22.5768
  39   2.0000      -0.824658       -22.4401
  40   2.0000      -0.796915       -21.6851
  41   2.0000      -0.764803       -20.8114
  42   2.0000      -0.762444       -20.7471
  43   2.0000      -0.737956       -20.0808
  44   2.0000      -0.724449       -19.7133
  45   2.0000      -0.722366       -19.6566
  46   2.0000      -0.720314       -19.6007
  47   2.0000      -0.694523       -18.8989
  48   2.0000      -0.694473       -18.8976
  49   2.0000      -0.692250       -18.8371
  50   2.0000      -0.662932       -18.0393
  51   2.0000      -0.661025       -17.9874
  52   2.0000      -0.651944       -17.7403
  53   2.0000      -0.650075       -17.6895
  54   2.0000      -0.649435       -17.6720
  55   2.0000      -0.645020       -17.5519
  56   2.0000      -0.635902       -17.3038
  57   2.0000      -0.635598       -17.2955
  58   2.0000      -0.631956       -17.1964
  59   2.0000      -0.629478       -17.1290
  60   2.0000      -0.602865       -16.4048
  61   2.0000      -0.600053       -16.3283
  62   2.0000      -0.595937       -16.2163
  63   2.0000      -0.583680       -15.8827
  64   2.0000      -0.580949       -15.8084
  65   2.0000      -0.572234       -15.5713
  66   2.0000      -0.569411       -15.4945
  67   2.0000      -0.568561       -15.4713
  68   2.0000      -0.550925       -14.9914
  69   2.0000      -0.516579       -14.0568
  70   2.0000      -0.474828       -12.9207
  71   2.0000      -0.470855       -12.8126
  72   2.0000      -0.456854       -12.4316
  73   2.0000      -0.455916       -12.4061
  74   0.0000      -0.086752        -2.3606
  75   0.0000      -0.065375        -1.7790
  76   0.0000      -0.057913        -1.5759
  77   0.0000      -0.049474        -1.3462
  78   0.0000      -0.046525        -1.2660

MULLIKEN ATOMIC CHARGES
-----------------------
   0 C :    0.084568
   1 C :    0.085334
   2 C :    0.226379
   3 H :    0.101161
   4 H :    0.101262
   5 H :    0.122042
   6 N :   -0.175099
   7 N :   -0.175407
   8 C :   -0.020134
   9 C :   -0.075276
  10 C :   -0.075508
  11 C :   -0.060274
  12 C :   -0.060139
  13 C :    0.043525
  14 H :    0.032967
  15 H :    0.032957
  16 H :    0.050821
  17 C :   -0.019421
  18 C :   -0.075459
  19 C :   -0.075741
  20 C :   -0.059715
  21 C :   -0.060512
  22 C :    0.043153
  23 H :    0.032950
  24 H :    0.033000
  25 H :    0.050893
  26 C :    0.064643
  27 H :    0.041746
  28 H :    0.055157
  29 H :    0.061915
  30 C :    0.067270
  31 H :    0.057345
  32 H :    0.037397
  33 H :    0.061922
  34 C :    0.065426
  35 H :    0.053809
  36 H :    0.041086
  37 H :    0.061980
  38 C :    0.062036
  39 H :    0.049429
  40 H :    0.047438
  41 H :    0.063075
Sum of atomic charges:    1.0000000

LOEWDIN ATOMIC CHARGES
----------------------
   0 C :    0.027875
   1 C :    0.027776
   2 C :    0.124114
   3 H :    0.061372
   4 H :    0.061390
   5 H :    0.065088
   6 N :    0.117604
   7 N :    0.117559
   8 C :   -0.027230
   9 C :   -0.017817
  10 C :   -0.017707
  11 C :   -0.019924
  12 C :   -0.019864
  13 C :    0.013320
  14 H :    0.043602
  15 H :    0.043620
  16 H :    0.049520
  17 C :   -0.027185
  18 C :   -0.017966
  19 C :   -0.017708
  20 C :   -0.019814
  21 C :   -0.019748
  22 C :    0.013260
  23 H :    0.043619
  24 H :    0.043647
  25 H :    0.049514
  26 C :   -0.049290
  27 H :    0.034480
  28 H :    0.040796
  29 H :    0.049640
  30 C :   -0.049016
  31 H :    0.041745
  32 H :    0.033548
  33 H :    0.049540
  34 C :   -0.049327
  35 H :    0.040190
  36 H :    0.034954
  37 H :    0.049649
  38 C :   -0.049920
  39 H :    0.037597
  40 H :    0.037426
  41 H :    0.050070

  Mayer bond orders larger than 0.100000
B(  0-C ,  1-C ) :   1.5846 B(  0-C ,  3-H ) :   0.9893 B(  0-C ,  6-N ) :   1.1584
B(  1-C ,  4-H ) :   0.9893 B(  1-C ,  7-N ) :   1.1584 B(  2-C ,  5-H ) :   0.9730
B(  2-C ,  6-N ) :   1.3414 B(  2-C ,  7-N ) :   1.3411 B(  6-N ,  8-C ) :   0.8726
B(  7-N , 17-C ) :   0.8717 B(  8-C ,  9-C ) :   1.4191 B(  8-C , 10-C ) :   1.4188
B(  9-C , 11-C ) :   1.4091 B(  9-C , 34-C ) :   1.0393 B( 10-C , 12-C ) :   1.4096
B( 10-C , 26-C ) :   1.0391 B( 11-C , 13-C ) :   1.3909 B( 11-C , 14-H ) :   0.9885
B( 12-C , 13-C ) :   1.3907 B( 12-C , 15-H ) :   0.9885 B( 13-C , 16-H ) :   0.9886
B( 17-C , 18-C ) :   1.4203 B( 17-C , 19-C ) :   1.4177 B( 18-C , 20-C ) :   1.4077
B( 18-C , 38-C ) :   1.0402 B( 19-C , 21-C ) :   1.4101 B( 19-C , 30-C ) :   1.0401
B( 20-C , 22-C ) :   1.3921 B( 20-C , 23-H ) :   0.9887 B( 21-C , 22-C ) :   1.3897
B( 21-C , 24-H ) :   0.9886 B( 22-C , 25-H ) :   0.9886 B( 26-C , 27-H ) :   0.9580
B( 26-C , 28-H ) :   0.9574 B( 26-C , 29-H ) :   0.9551 B( 30-C , 31-H ) :   0.9556
B( 30-C , 32-H ) :   0.9591 B( 30-C , 33-H ) :   0.9553 B( 34-C , 35-H ) :   0.9579
B( 34-C , 36-H ) :   0.9573 B( 34-C , 37-H ) :   0.9554 B( 38-C , 39-H ) :   0.9558
B( 38-C , 40-H ) :   0.9598 B( 38-C , 41-H ) :   0.9549

Dispersion correction           -0.009508846
FINAL SINGLE POINT ENERGY      -845.173386701829

DIPOLE MOMENT
-------------
                                X             Y             Z
Electronic contribution:      0.00612      -0.00936      -0.51345
Nuclear contribution   :     -0.00627       0.01104       0.09115
                        -----------------------------------------
Total Dipole Moment    :     -0.00015       0.00169      -0.42230
                        -----------------------------------------
Magnitude (a.u.)       :      0.42230
Magnitude (Debye)      :      1.07340

Dispersion correction in the Hessian             ... Starting D4

VIBRATIONAL FREQUENCIES
-----------------------

Scaling factor for frequencies =  1.000000000  (already applied!)

   0:         0.00 cm**-1
   1:         0.00 cm**-1
   2:         0.00 cm**-1
   3:         0.00 cm**-1
   4:         0.00 cm**-1
   5:         0.00 cm**-1
   6:       -10.16 cm**-1 ***imaginary mode***
   7:        19.12 cm**-1
   8:        55.36 cm**-1
   9:        74.10 cm**-1
  10:        83.77 cm**-1
  11:        87.34 cm**-1
  12:       111.78 cm**-1
  13:       116.77 cm**-1
  14:       118.94 cm**-1
  15:       131.17 cm**-1
  16:       137.27 cm**-1
  17:       192.82 cm**-1
  18:       210.50 cm**-1
  19:       231.13 cm**-1
  20:       232.30 cm**-1
  21:       281.80 cm**-1
  22:       301.88 cm**-1
  23:       330.95 cm**-1
  24:       355.64 cm**-1
  25:       357.73 cm**-1
  26:       392.10 cm**-1
  27:       426.08 cm**-1
  28:       481.80 cm**-1
  29:       493.14 cm**-1
  30:       532.35 cm**-1
  31:       532.97 cm**-1
  32:       541.85 cm**-1
  33:       546.04 cm**-1
  34:       563.14 cm**-1
  35:       590.49 cm**-1
  36:       594.29 cm**-1
  37:       619.73 cm**-1
  38:       697.22 cm**-1
  39:       702.74 cm**-1
  40:       766.17 cm**-1
  41:       768.94 cm**-1
  42:       772.79 cm**-1
  43:       777.17 cm**-1
  44:       787.50 cm**-1
  45:       816.47 cm**-1
  46:       818.59 cm**-1
  47:       902.39 cm**-1
  48:       923.00 cm**-1
  49:       944.39 cm**-1
  50:       945.76 cm**-1
  51:       947.77 cm**-1
  52:       949.96 cm**-1
  53:       971.65 cm**-1
  54:       981.28 cm**-1
  55:      1008.65 cm**-1
  56:      1009.42 cm**-1
  57:      1044.63 cm**-1
  58:      1045.88 cm**-1
  59:      1058.58 cm**-1
  60:      1060.55 cm**-1
  61:      1063.00 cm**-1
  62:      1064.44 cm**-1
  63:      1065.63 cm**-1
  64:      1066.60 cm**-1
  65:      1078.97 cm**-1
  66:      1099.75 cm**-1
  67:      1113.95 cm**-1
  68:      1125.59 cm**-1
  69:      1148.87 cm**-1
  70:      1188.52 cm**-1
  71:      1189.52 cm**-1
  72:      1245.89 cm**-1
  73:      1264.01 cm**-1
  74:      1284.39 cm**-1
  75:      1285.26 cm**-1
  76:      1303.32 cm**-1
  77:      1311.19 cm**-1
  78:      1336.21 cm**-1
  79:      1337.11 cm**-1
  80:      1384.11 cm**-1
  81:      1404.17 cm**-1
  82:      1406.97 cm**-1
  83:      1410.94 cm**-1
  84:      1416.31 cm**-1
  85:      1426.18 cm**-1
  86:      1446.90 cm**-1
  87:      1449.48 cm**-1
  88:      1457.40 cm**-1
  89:      1462.81 cm**-1
  90:      1463.91 cm**-1
  91:      1464.53 cm**-1
  92:      1464.65 cm**-1
  93:      1466.17 cm**-1
  94:      1479.55 cm**-1
  95:      1530.13 cm**-1
  96:      1539.05 cm**-1
  97:      1539.66 cm**-1
  98:      1550.04 cm**-1
  99:      1646.71 cm**-1
 100:      1647.06 cm**-1
 101:      1694.27 cm**-1
 102:      1694.52 cm**-1
 103:      1710.06 cm**-1
 104:      1711.34 cm**-1
 105:      3067.09 cm**-1
 106:      3067.46 cm**-1
 107:      3068.00 cm**-1
 108:      3069.13 cm**-1
 109:      3152.64 cm**-1
 110:      3152.97 cm**-1
 111:      3153.21 cm**-1
 112:      3154.39 cm**-1
 113:      3196.09 cm**-1
 114:      3196.62 cm**-1
 115:      3196.72 cm**-1
 116:      3197.12 cm**-1
 117:      3217.21 cm**-1
 118:      3217.38 cm**-1
 119:      3224.17 cm**-1
 120:      3224.33 cm**-1
 121:      3236.43 cm**-1
 122:      3236.58 cm**-1
 123:      3291.80 cm**-1
 124:      3300.18 cm**-1
 125:      3319.18 cm**-1

IR SPECTRUM
-----------

 Mode   freq       eps      Int      T**2         TX        TY        TZ
       cm**-1   L/(mol*cm) km/mol    a.u.
----------------------------------------------------------------------------
  7:     19.12   0.000034    0.17  0.000558  (-0.023393 -0.000355  0.003304)
  8:     55.36   0.000021    0.11  0.000117  ( 0.000497 -0.000010 -0.010814)
  9:     74.10   0.000019    0.10  0.000082  (-0.008527  0.002959 -0.000299)
 10:     83.77   0.000000    0.00  0.000002  ( 0.000171 -0.001259 -0.000494)
 11:     87.34   0.000002    0.01  0.000008  ( 0.001505  0.002297 -0.000881)
 12:    111.78   0.000057    0.29  0.000160  ( 0.001701  0.000013  0.012554)
 13:    116.77   0.000154    0.78  0.000411  ( 0.002209 -0.007514 -0.018696)
 14:    118.94   0.000193    0.98  0.000507  (-0.000027  0.007678 -0.021168)
 15:    131.17   0.000027    0.14  0.000065  (-0.005148 -0.002163  0.005833)
 16:    137.27   0.000007    0.04  0.000016  (-0.000155  0.000403  0.004032)
 17:    192.82   0.000063    0.32  0.000103  ( 0.001204  0.010056  0.000398)
 18:    210.50   0.000053    0.27  0.000079  ( 0.000817  0.000123  0.008825)
 19:    231.13   0.000001    0.00  0.000001  (-0.000407 -0.000378 -0.000978)
 20:    232.30   0.000000    0.00  0.000001  (-0.000226 -0.000206 -0.000708)
 21:    281.80   0.000000    0.00  0.000000  (-0.000062 -0.000043  0.000128)
 22:    301.88   0.000005    0.02  0.000005  (-0.002148 -0.000133 -0.000195)
 23:    330.95   0.002268   11.46  0.002139  ( 0.001832 -0.000240  0.046209)
 24:    355.64   0.000883    4.46  0.000775  (-0.001093  0.000017 -0.027814)
 25:    357.73   0.000045    0.23  0.000039  (-0.000384 -0.000258 -0.006242)
 26:    392.10   0.000041    0.21  0.000033  ( 0.001036  0.005566  0.000752)
 27:    426.08   0.000913    4.62  0.000669  ( 0.000163  0.025863 -0.000101)
 28:    481.80   0.000054    0.27  0.000035  ( 0.005923 -0.000071  0.000386)
 29:    493.14   0.000000    0.00  0.000000  (-0.000084  0.000122  0.000310)
 30:    532.35   0.000002    0.01  0.000001  (-0.001017 -0.000016 -0.000072)
 31:    532.97   0.000000    0.00  0.000000  (-0.000265  0.000049  0.000020)
 32:    541.85   0.000435    2.20  0.000250  (-0.015817  0.000153  0.000352)
 33:    546.04   0.000001    0.01  0.000001  ( 0.000755 -0.000024 -0.000370)
 34:    563.14   0.000448    2.26  0.000248  (-0.000128 -0.000145 -0.015758)
 35:    590.49   0.000307    1.55  0.000162  ( 0.000071 -0.012735  0.000118)
 36:    594.29   0.000011    0.05  0.000006  ( 0.000098  0.001015  0.002144)
 37:    619.73   0.000305    1.54  0.000153  ( 0.000020 -0.012387  0.000070)
 38:    697.22   0.000004    0.02  0.000002  (-0.001206  0.000277 -0.000632)
 39:    702.74   0.005801   29.32  0.002576  (-0.050753  0.000111  0.000593)
 40:    766.17   0.000013    0.06  0.000005  (-0.000214 -0.000219 -0.002242)
 41:    768.94   0.000001    0.01  0.000000  (-0.000265 -0.000384 -0.000485)
 42:    772.79   0.000007    0.04  0.000003  (-0.000002 -0.001534  0.000796)
 43:    777.17   0.000019    0.09  0.000008  ( 0.000057  0.002541  0.001037)
 44:    787.50   0.004438   22.43  0.001759  (-0.041931 -0.000479 -0.000664)
 45:    816.47   0.006909   34.92  0.002641  ( 0.004413  0.015489  0.048799)
 46:    818.59   0.005768   29.15  0.002199  (-0.000885  0.017931 -0.043318)
 47:    902.39   0.002127   10.75  0.000736  ( 0.027116  0.000588 -0.000029)
 48:    923.00   0.000001    0.00  0.000000  ( 0.000195 -0.000243  0.000349)
 49:    944.39   0.000031    0.16  0.000010  (-0.003209 -0.000014 -0.000295)
 50:    945.76   0.000253    1.28  0.000083  (-0.009112  0.000543  0.000313)
 51:    947.77   0.000018    0.09  0.000006  ( 0.002106 -0.000099 -0.001236)
 52:    949.96   0.000002    0.01  0.000001  ( 0.000512  0.000242 -0.000520)
 53:    971.65   0.001920    9.70  0.000617  ( 0.000052  0.024829  0.000150)
 54:    981.28   0.000009    0.04  0.000003  ( 0.000119  0.000076 -0.001641)
 55:   1008.65   0.000971    4.91  0.000300  (-0.000197 -0.017327  0.000430)
 56:   1009.42   0.000140    0.71  0.000043  (-0.000156  0.001073  0.006493)
 57:   1044.63   0.000087    0.44  0.000026  (-0.000587  0.000889 -0.004987)
 58:   1045.88   0.000610    3.09  0.000182  (-0.001734  0.000271  0.013382)
 59:   1058.58   0.000007    0.03  0.000002  (-0.000398 -0.000689  0.001154)
 60:   1060.55   0.000219    1.11  0.000064  ( 0.001620  0.000116  0.007857)
 61:   1063.00   0.000314    1.59  0.000092  ( 0.001081 -0.003606  0.008834)
 62:   1064.44   0.001480    7.48  0.000434  ( 0.003803 -0.002216 -0.020358)
 63:   1065.63   0.000083    0.42  0.000024  (-0.000374  0.001067 -0.004797)
 64:   1066.60   0.000110    0.55  0.000032  (-0.003058  0.000519 -0.004740)
 65:   1078.97   0.006276   31.72  0.001815  ( 0.000314 -0.042600 -0.000487)
 66:   1099.75   0.002426   12.26  0.000688  ( 0.000363  0.000181  0.026235)
 67:   1113.95   0.000569    2.88  0.000159  (-0.000339  0.000599 -0.012607)
 68:   1125.59   0.004877   24.65  0.001352  (-0.000066  0.036772 -0.000209)
 69:   1148.87   0.000209    1.06  0.000057  (-0.000054 -0.000291  0.007526)
 70:   1188.52   0.000961    4.86  0.000252  (-0.015884 -0.000033  0.000125)
 71:   1189.52   0.001001    5.06  0.000263  ( 0.016188 -0.000378 -0.000653)
 72:   1245.89   0.008006   40.46  0.002005  (-0.000228  0.044781  0.000048)
 73:   1264.01   0.004886   24.69  0.001206  (-0.000158  0.034730  0.000012)
 74:   1284.39   0.000000    0.00  0.000000  (-0.000058  0.000101 -0.000050)
 75:   1285.26   0.000001    0.00  0.000000  ( 0.000350  0.000210 -0.000202)
 76:   1303.32   0.000061    0.31  0.000015  (-0.000101  0.000035  0.003833)
 77:   1311.19   0.000157    0.79  0.000037  (-0.000076  0.006097  0.000299)
 78:   1336.21   0.000064    0.32  0.000015  ( 0.003816  0.000563  0.000312)
 79:   1337.11   0.004327   21.87  0.001010  (-0.031764  0.000271  0.000884)
 80:   1384.11   0.000290    1.47  0.000065  ( 0.000997 -0.000066 -0.008030)
 81:   1404.17   0.000012    0.06  0.000003  ( 0.001170 -0.000884  0.000781)
 82:   1406.97   0.000232    1.17  0.000051  (-0.007064 -0.000864  0.000891)
 83:   1410.94   0.000294    1.48  0.000065  (-0.000869  0.007997  0.000509)
 84:   1416.31   0.000029    0.14  0.000006  (-0.001486  0.000574  0.001940)
 85:   1426.18   0.000095    0.48  0.000021  (-0.000575 -0.004497  0.000464)
 86:   1446.90   0.000882    4.46  0.000190  (-0.000107 -0.002526  0.013558)
 87:   1449.48   0.002302   11.63  0.000496  (-0.000281 -0.022115 -0.002538)
 88:   1457.40   0.000035    0.18  0.000008  ( 0.000198 -0.002670 -0.000629)
 89:   1462.81   0.002713   13.71  0.000579  ( 0.021829 -0.009946  0.001826)
 90:   1463.91   0.002852   14.41  0.000608  ( 0.014923  0.016263 -0.010988)
 91:   1464.53   0.005933   29.99  0.001264  (-0.005847 -0.006811  0.034405)
 92:   1464.65   0.003921   19.82  0.000835  ( 0.010698 -0.013529 -0.023194)
 93:   1466.17   0.005506   27.82  0.001172  ( 0.025239  0.004102  0.022759)
 94:   1479.55   0.000143    0.72  0.000030  (-0.001025  0.000547  0.005366)
 95:   1530.13   0.008068   40.77  0.001645  ( 0.000230  0.040562 -0.000214)
 96:   1539.05   0.000057    0.29  0.000011  ( 0.002700  0.001760  0.001042)
 97:   1539.66   0.007225   36.51  0.001464  ( 0.038211 -0.000735 -0.001957)
 98:   1550.04   0.001718    8.68  0.000346  (-0.000228  0.000095 -0.018596)
 99:   1646.71   0.025151  127.10  0.004766  ( 0.000451 -0.068655  0.007254)
100:   1647.06   0.007929   40.07  0.001502  ( 0.000553 -0.036169 -0.013923)
101:   1694.27   0.002107   10.65  0.000388  ( 0.000022 -0.019532  0.002561)
102:   1694.52   0.000625    3.16  0.000115  ( 0.000107 -0.008728 -0.006239)
103:   1710.06   0.000009    0.05  0.000002  (-0.001274 -0.000153 -0.000281)
104:   1711.34   0.001652    8.35  0.000301  (-0.017349 -0.000023  0.000556)
105:   3067.09   0.002141   10.82  0.000218  ( 0.012828 -0.007296  0.000242)
106:   3067.46   0.002251   11.38  0.000229  ( 0.009078  0.012068  0.000990)
107:   3068.00   0.001887    9.54  0.000192  (-0.006536 -0.011793  0.003183)
108:   3069.13   0.003410   17.23  0.000347  (-0.005322  0.017760  0.001726)
109:   3152.64   0.001426    7.20  0.000141  ( 0.000639 -0.003050  0.011463)
110:   3152.97   0.001749    8.84  0.000173  ( 0.001112  0.003440  0.012652)
111:   3153.21   0.000619    3.13  0.000061  ( 0.001090  0.006033  0.004868)
112:   3154.39   0.001000    5.06  0.000099  ( 0.000266 -0.007409  0.006633)
113:   3196.09   0.000675    3.41  0.000066  ( 0.003441  0.007079 -0.001977)
114:   3196.62   0.001016    5.13  0.000099  (-0.005388  0.008330  0.000857)
115:   3196.72   0.000289    1.46  0.000028  (-0.001603  0.004731 -0.001811)
116:   3197.12   0.000842    4.26  0.000082  ( 0.002777  0.008506  0.001467)
117:   3217.21   0.000001    0.01  0.000000  ( 0.000097 -0.000183  0.000272)
118:   3217.38   0.000001    0.01  0.000000  (-0.000049 -0.000154 -0.000297)
119:   3224.17   0.000231    1.17  0.000022  ( 0.004719 -0.000025 -0.000290)
120:   3224.33   0.000243    1.23  0.000024  (-0.004849 -0.000044  0.000084)
121:   3236.43   0.000133    0.67  0.000013  (-0.000086  0.003487 -0.000828)
122:   3236.58   0.000118    0.60  0.000011  (-0.000004  0.003247  0.000927)
123:   3291.80   0.006826   34.50  0.000647  (-0.000390  0.000089 -0.025436)
124:   3300.18   0.004361   22.04  0.000412  (-0.000046  0.020308  0.000013)
125:   3319.18   0.003638   18.39  0.000342  (-0.000266 -0.000022 -0.018493)

--------------------------
THERMOCHEMISTRY AT 298.15K
--------------------------

Temperature         ... 298.15 K
Pressure            ... 1.00 atm
Total Mass          ... 277.39 AMU

Throughout the following assumptions are being made:
  (1) The electronic state is orbitally nondegenerate
  (2) There are no thermally accessible electronically excited states
  (3) Hindered rotations indicated by low frequency modes are not
      treated as such but are treated as vibrations and this may
      cause some error
  (4) All equations used are the standard statistical mechanics
      equations for an ideal gas
  (5) All vibrations are strictly harmonic

freq.      19.12  E(vib)   ...       0.57
freq.      55.36  E(vib)   ...       0.52
freq.      74.10  E(vib)   ...       0.49
freq.      83.77  E(vib)   ...       0.48
freq.      87.34  E(vib)   ...       0.48
freq.     111.78  E(vib)   ...       0.45
freq.     116.77  E(vib)   ...       0.44
freq.     118.94  E(vib)   ...       0.44
freq.     131.17  E(vib)   ...       0.42
freq.     137.27  E(vib)   ...       0.42
freq.     192.82  E(vib)   ...       0.36
freq.     210.50  E(vib)   ...       0.34
freq.     231.13  E(vib)   ...       0.32
freq.     232.30  E(vib)   ...       0.32
freq.     281.80  E(vib)   ...       0.28
freq.     301.88  E(vib)   ...       0.26
freq.     330.95  E(vib)   ...       0.24
freq.     355.64  E(vib)   ...       0.22
freq.     357.73  E(vib)   ...       0.22
freq.     392.10  E(vib)   ...       0.20
freq.     426.08  E(vib)   ...       0.18
freq.     481.80  E(vib)   ...       0.15
freq.     493.14  E(vib)   ...       0.14
freq.     532.35  E(vib)   ...       0.13
freq.     532.97  E(vib)   ...       0.13
freq.     541.85  E(vib)   ...       0.12
freq.     546.04  E(vib)   ...       0.12
freq.     563.14  E(vib)   ...       0.11
freq.     590.49  E(vib)   ...       0.10
freq.     594.29  E(vib)   ...       0.10
freq.     619.73  E(vib)   ...       0.09
freq.     697.22  E(vib)   ...       0.07
freq.     702.74  E(vib)   ...       0.07
freq.     766.17  E(vib)   ...       0.06
freq.     768.94  E(vib)   ...       0.06
freq.     772.79  E(vib)   ...       0.05
freq.     777.17  E(vib)   ...       0.05
freq.     787.50  E(vib)   ...       0.05
freq.     816.47  E(vib)   ...       0.05
freq.     818.59  E(vib)   ...       0.05
freq.     902.39  E(vib)   ...       0.03
freq.     923.00  E(vib)   ...       0.03
freq.     944.39  E(vib)   ...       0.03
freq.     945.76  E(vib)   ...       0.03
freq.     947.77  E(vib)   ...       0.03
freq.     949.96  E(vib)   ...       0.03
freq.     971.65  E(vib)   ...       0.03
freq.     981.28  E(vib)   ...       0.02
freq.    1008.65  E(vib)   ...       0.02
freq.    1009.42  E(vib)   ...       0.02
freq.    1044.63  E(vib)   ...       0.02
freq.    1045.88  E(vib)   ...       0.02
freq.    1058.58  E(vib)   ...       0.02
freq.    1060.55  E(vib)   ...       0.02
freq.    1063.00  E(vib)   ...       0.02
freq.    1064.44  E(vib)   ...       0.02
freq.    1065.63  E(vib)   ...       0.02
freq.    1066.60  E(vib)   ...       0.02
freq.    1078.97  E(vib)   ...       0.02
freq.    1099.75  E(vib)   ...       0.02
freq.    1113.95  E(vib)   ...       0.01
freq.    1125.59  E(vib)   ...       0.01
freq.    1148.87  E(vib)   ...       0.01
freq.    1188.52  E(vib)   ...       0.01
freq.    1189.52  E(vib)   ...       0.01
freq.    1245.89  E(vib)   ...       0.01
freq.    1264.01  E(vib)   ...       0.01
freq.    1284.39  E(vib)   ...       0.01
freq.    1285.26  E(vib)   ...       0.01
freq.    1303.32  E(vib)   ...       0.01
freq.    1311.19  E(vib)   ...       0.01
freq.    1336.21  E(vib)   ...       0.01
freq.    1337.11  E(vib)   ...       0.01
freq.    1384.11  E(vib)   ...       0.00
freq.    1404.17  E(vib)   ...       0.00
freq.    1406.97  E(vib)   ...       0.00
freq.    1410.94  E(vib)   ...       0.00
freq.    1416.31  E(vib)   ...       0.00
freq.    1426.18  E(vib)   ...       0.00
freq.    1446.90  E(vib)   ...       0.00
freq.    1449.48  E(vib)   ...       0.00
freq.    1457.40  E(vib)   ...       0.00
freq.    1462.81  E(vib)   ...       0.00
freq.    1463.91  E(vib)   ...       0.00
freq.    1464.53  E(vib)   ...       0.00
freq.    1464.65  E(vib)   ...       0.00
freq.    1466.17  E(vib)   ...       0.00
freq.    1479.55  E(vib)   ...       0.00
freq.    1530.13  E(vib)   ...       0.00
freq.    1539.05  E(vib)   ...       0.00
freq.    1539.66  E(vib)   ...       0.00
freq.    1550.04  E(vib)   ...       0.00
freq.    1646.71  E(vib)   ...       0.00
freq.    1647.06  E(vib)   ...       0.00
freq.    1694.27  E(vib)   ...       0.00
freq.    1694.52  E(vib)   ...       0.00
freq.    1710.06  E(vib)   ...       0.00
freq.    1711.34  E(vib)   ...       0.00
freq.    3067.09  E(vib)   ...       0.00
freq.    3067.46  E(vib)   ...       0.00
freq.    3068.00  E(vib)   ...       0.00
freq.    3069.13  E(vib)   ...       0.00
freq.    3152.64  E(vib)   ...       0.00
freq.    3152.97  E(vib)   ...       0.00
freq.    3153.21  E(vib)   ...       0.00
freq.    3154.39  E(vib)   ...       0.00
freq.    3196.09  E(vib)   ...       0.00
freq.    3196.62  E(vib)   ...       0.00
freq.    3196.72  E(vib)   ...       0.00
freq.    3197.12  E(vib)   ...       0.00
freq.    3217.21  E(vib)   ...       0.00
freq.    3217.38  E(vib)   ...       0.00
freq.    3224.17  E(vib)   ...       0.00
freq.    3224.33  E(vib)   ...       0.00
freq.    3236.43  E(vib)   ...       0.00
freq.    3236.58  E(vib)   ...       0.00
freq.    3291.80  E(vib)   ...       0.00
freq.    3300.18  E(vib)   ...       0.00
freq.    3319.18  E(vib)   ...       0.00

------------
INNER ENERGY
------------

The inner energy is: U= E(el) + E(ZPE) + E(vib) + E(rot) + E(trans)
    E(el)   - is the total energy from the electronic structure calculation
              = E(kin-el) + E(nuc-el) + E(el-el) + E(nuc-nuc)
    E(ZPE)  - the the zero temperature vibrational energy from the frequency calculation
    E(vib)  - the the finite temperature correction to E(ZPE) due to population
              of excited vibrational states
    E(rot)  - is the rotational thermal energy
    E(trans)- is the translational thermal energy

Summary of contributions to the inner energy U:
Electronic energy                ...   -845.17338670 Eh
Zero point energy                ...      0.35954888 Eh     225.62 kcal/mol
Thermal vibrational correction   ...      0.01594883 Eh      10.01 kcal/mol
Thermal rotational correction    ...      0.00141627 Eh       0.89 kcal/mol
Thermal translational correction ...      0.00141627 Eh       0.89 kcal/mol
-----------------------------------------------------------------------
Total thermal energy                   -844.79505646 Eh

Summary of corrections to the electronic energy:

Rotational constants in cm-1:     0.023099     0.005958     0.005197

                             ****ORCA TERMINATED NORMALLY****
TOTAL RUN TIME: 0 days 1 hours 52 minutes 59 seconds 671 msec
