                         Program Version 5.0.4 -  RELEASE  -
|  1> ! SP wB97X D4 def2-SVP def2/J defgrid2
|  2> %maxcore 3000
|  3> %PAL NPROCS 4 END
|  4> * xyz 0 1
|  5> C 0.3072 0.7601 -1.7246
|  6> C 0.2166 -0.5876 -1.7958
|  7> C -0.072 -0.0062 0.4077
|  8> H 0.4774 1.5117 -2.4932
|  9> H 0.2944 -1.2706 -2.6396
| 10> N 0.1296 1.0842 -0.3837
| 11> N -0.014 -1.0241 -0.496
| 12> C 0.1573 2.4248 0.1181
| 13> C -1.0566 3.0739 0.3812
| 14> C 1.3985 3.0399 0.3306
| 15> C -1.0061 4.3859 0.8591
| 16> C 1.4063 4.3538 0.8065
| 17> C 0.214 5.0232 1.0663
| 18> H -1.9415 4.9128 1.0702
| 19> H 2.3645 4.8527 0.9798
| 20> H 0.2359 6.051 1.4392
| 21> C -0.1697 -2.4023 -0.141
| 22> C -1.3996 -3.0285 -0.3849
| 23> C 0.9138 -3.0766 0.4381
| 24> C -1.525 -4.3798 -0.0511
| 25> C 0.7469 -4.4256 0.7616
| 26> C -0.4599 -5.0742 0.5152
| 27> H -2.4773 -4.8879 -0.2304
| 28> H 1.579 -4.9702 1.2179
| 29> H -0.5742 -6.1305 0.7739
| 30> C 2.6792 2.2888 0.079
| 31> H 2.6944 1.3482 0.6522
| 32> H 2.7933 2.0185 -0.9827
| 33> H 3.5508 2.8903 0.372
| 34> C 2.2027 -2.3537 0.7229
| 35> H 2.592 -1.8545 -0.1787
| 36> H 2.0394 -1.5689 1.4783
| 37> H 2.9692 -3.0489 1.0926
| 38> C -2.3668 2.3616 0.1774
| 39> H -3.2143 3.0406 0.3457
| 40> H -2.4464 1.952 -0.8422
| 41> H -2.4514 1.5104 0.8712
| 42> C -2.5535 -2.2526 -0.964
| 43> H -2.7443 -1.3427 -0.3735
| 44> H -2.3494 -1.9274 -1.9967
| 45> H -3.4691 -2.8602 -0.9743
| 46> **                         ****END OF INPUT****

CARTESIAN COORDINATES (ANGSTROEM)
---------------------------------
  C      0.307200    0.760100   -1.724600
  C      0.216600   -0.587600   -1.795800
  C     -0.072000   -0.006200    0.407700
  H      0.477400    1.511700   -2.493200
  H      0.294400   -1.270600   -2.639600
  N      0.129600    1.084200   -0.383700
  N     -0.014000   -1.024100   -0.496000
  C      0.157300    2.424800    0.118100
  C     -1.056600    3.073900    0.381200
  C      1.398500    3.039900    0.330600
  C     -1.006100    4.385900    0.859100
  C      1.406300    4.353800    0.806500
  C      0.214000    5.023200    1.066300
  H     -1.941500    4.912800    1.070200
  H      2.364500    4.852700    0.979800
  H      0.235900    6.051000    1.439200
  C     -0.169700   -2.402300   -0.141000
  C     -1.399600   -3.028500   -0.384900
  C      0.913800   -3.076600    0.438100
  C     -1.525000   -4.379800   -0.051100
  C      0.746900   -4.425600    0.761600
  C     -0.459900   -5.074200    0.515200
  H     -2.477300   -4.887900   -0.230400
  H      1.579000   -4.970200    1.217900
  H     -0.574200   -6.130500    0.773900
  C      2.679200    2.288800    0.079000
  H      2.694400    1.348200    0.652200
  H      2.793300    2.018500   -0.982700
  H      3.550800    2.890300    0.372000
  C      2.202700   -2.353700    0.722900
  H      2.592000   -1.854500   -0.178700
  H      2.039400   -1.568900    1.478300
  H      2.969200   -3.048900    1.092600
  C     -2.366800    2.361600    0.177400
  H     -3.214300    3.040600    0.345700
  H     -2.446400    1.952000   -0.842200
  H     -2.451400    1.510400    0.871200
  C     -2.553500   -2.252600   -0.964000
  H     -2.744300   -1.342700   -0.373500
  H     -2.349400   -1.927400   -1.996700
  H     -3.469100   -2.860200   -0.974300

 Total Charge           Charge          ....    0
 Multiplicity           Mult            ....    1
 Number of Electrons    NEL             ....  148
 Basis Dimension        Dim             ....  394

ORBITAL ENERGIES
----------------

  NO   OCC          E(Eh)            E(eV)
   0   2.0000     -14.453039      -393.2872
   1   2.0000     -14.453026      -393.2868
   2   2.0000     -10.305668      -280.4315
   3   2.0000     -10.305605      -280.4298
   4   2.0000     -10.304376      -280.3963
   5   2.0000     -10.303773      -280.3799
   6   2.0000     -10.285010      -279.8694
   7   2.0000     -10.284916      -279.8668
   8   2.0000     -10.283924      -279.8398
   9   2.0000     -10.283754      -279.8352
  10   2.0000     -10.277393      -279.6621
  11   2.0000     -10.275563      -279.6123
  12   2.0000     -10.275555      -279.6121
  13   2.0000     -10.272019      -279.5158
  14   2.0000     -10.271874      -279.5119
  15   2.0000     -10.271806      -279.5100
  16   2.0000     -10.271773      -279.5091
  17   2.0000     -10.271235      -279.4945
  18   2.0000     -10.271203      -279.4936
  19   2.0000     -10.267162      -279.3837
  20   2.0000     -10.266759      -279.3727
  21   2.0000      -1.154464       -31.4146
  22   2.0000      -1.055210       -28.7137
  23   2.0000      -0.993951       -27.0468
  24   2.0000      -0.972994       -26.4765
  25   2.0000      -0.910710       -24.7817
  26   2.0000      -0.910539       -24.7770
  27   2.0000      -0.904130       -24.6026
  28   2.0000      -0.870811       -23.6960
  29   2.0000      -0.867405       -23.6033
  30   2.0000      -0.827434       -22.5156
  31   2.0000      -0.809491       -22.0274
  32   2.0000      -0.799803       -21.7637
  33   2.0000      -0.799089       -21.7443
  34   2.0000      -0.758656       -20.6441
  35   2.0000      -0.735059       -20.0020
  36   2.0000      -0.697031       -18.9672
  37   2.0000      -0.694967       -18.9110
  38   2.0000      -0.692141       -18.8341
  39   2.0000      -0.676810       -18.4169
  40   2.0000      -0.649550       -17.6751
  41   2.0000      -0.615685       -16.7536
  42   2.0000      -0.609122       -16.5750
  43   2.0000      -0.596038       -16.2190
  44   2.0000      -0.591746       -16.1022
  45   2.0000      -0.560921       -15.2634
  46   2.0000      -0.556205       -15.1351
  47   2.0000      -0.551382       -15.0039
  48   2.0000      -0.534189       -14.5360
  49   2.0000      -0.532987       -14.5033
  50   2.0000      -0.529195       -14.4001
  51   2.0000      -0.523548       -14.2465
  52   2.0000      -0.522826       -14.2268
  53   2.0000      -0.518966       -14.1218
  54   2.0000      -0.518281       -14.1031
  55   2.0000      -0.512349       -13.9417
  56   2.0000      -0.512229       -13.9385
  57   2.0000      -0.510540       -13.8925
  58   2.0000      -0.507992       -13.8232
  59   2.0000      -0.479304       -13.0425
  60   2.0000      -0.477063       -12.9815
  61   2.0000      -0.458527       -12.4772
  62   2.0000      -0.456127       -12.4118
  63   2.0000      -0.454236       -12.3604
  64   2.0000      -0.450838       -12.2679
  65   2.0000      -0.444616       -12.0986
  66   2.0000      -0.443260       -12.0617
  67   2.0000      -0.388619       -10.5749
  68   2.0000      -0.341027        -9.2798
  69   2.0000      -0.340357        -9.2616
  70   2.0000      -0.334326        -9.0975
  71   2.0000      -0.333068        -9.0633
  72   2.0000      -0.327937        -8.9236
  73   2.0000      -0.313204        -8.5227
  74   0.0000       0.066582         1.8118
  75   0.0000       0.071179         1.9369
  76   0.0000       0.077462         2.1078
  77   0.0000       0.078029         2.1233
  78   0.0000       0.114153         3.1063

MULLIKEN ATOMIC CHARGES
-----------------------
   0 C :    0.049568
   1 C :    0.049575
   2 C :   -0.065830
   3 H :    0.041083
   4 H :    0.041020
   5 N :   -0.221703
   6 N :   -0.221969
   7 C :    0.064316
   8 C :   -0.085056
   9 C :   -0.092480
  10 C :   -0.071136
  11 C :   -0.071724
  12 C :    0.026294
  13 H :   -0.003309
  14 H :   -0.003825
  15 H :    0.010861
  16 C :    0.064847
  17 C :   -0.092835
  18 C :   -0.086410
  19 C :   -0.071771
  20 C :   -0.070475
  21 C :    0.025965
  22 H :   -0.003719
  23 H :   -0.003300
  24 H :    0.010946
  25 C :    0.086143
  26 H :    0.048705
  27 H :    0.036636
  28 H :    0.021827
  29 C :    0.082687
  30 H :    0.030781
  31 H :    0.066406
  32 H :    0.018231
  33 C :    0.081405
  34 H :    0.018755
  35 H :    0.031095
  36 H :    0.065648
  37 C :    0.085597
  38 H :    0.047159
  39 H :    0.037365
  40 H :    0.022628
Sum of atomic charges:   -0.0000000

LOEWDIN ATOMIC CHARGES
----------------------
   0 C :   -0.029027
   1 C :   -0.028711
   2 C :   -0.224033
   3 H :    0.033058
   4 H :    0.033025
   5 N :    0.038139
   6 N :    0.038068
   7 C :    0.009888
   8 C :   -0.015412
   9 C :   -0.021424
  10 C :   -0.039382
  11 C :   -0.040654
  12 C :   -0.021582
  13 H :    0.028214
  14 H :    0.027856
  15 H :    0.031839
  16 C :    0.009979
  17 C :   -0.021891
  18 C :   -0.015309
  19 C :   -0.040606
  20 C :   -0.039224
  21 C :   -0.021746
  22 H :    0.027877
  23 H :    0.028239
  24 H :    0.031823
  25 C :   -0.050368
  26 H :    0.040886
  27 H :    0.034109
  28 H :    0.030804
  29 C :   -0.051561
  30 H :    0.033718
  31 H :    0.044070
  32 H :    0.028836
  33 C :   -0.051515
  34 H :    0.029059
  35 H :    0.033783
  36 H :    0.043931
  37 C :   -0.050459
  38 H :    0.040253
  39 H :    0.034386
  40 H :    0.031064

  Mayer bond orders larger than 0.100000
B(  0-C ,  1-C ) :   1.6266 B(  0-C ,  3-H ) :   0.9916 B(  0-C ,  5-N ) :   1.0931
B(  1-C ,  4-H ) :   0.9916 B(  1-C ,  6-N ) :   1.0935 B(  2-C ,  5-N ) :   1.1969
B(  2-C ,  6-N ) :   1.1959 B(  5-N ,  7-C ) :   0.9489 B(  6-N , 16-C ) :   0.9483
B(  7-C ,  8-C ) :   1.4380 B(  7-C ,  9-C ) :   1.4368 B(  8-C , 10-C ) :   1.3969
B(  8-C , 33-C ) :   1.0542 B(  9-C , 11-C ) :   1.3967 B(  9-C , 25-C ) :   1.0523
B( 10-C , 12-C ) :   1.3881 B( 10-C , 13-H ) :   0.9894 B( 11-C , 12-C ) :   1.3894
B( 11-C , 14-H ) :   0.9895 B( 12-C , 15-H ) :   0.9899 B( 16-C , 17-C ) :   1.4371
B( 16-C , 18-C ) :   1.4374 B( 17-C , 19-C ) :   1.3958 B( 17-C , 37-C ) :   1.0525
B( 18-C , 20-C ) :   1.3974 B( 18-C , 29-C ) :   1.0549 B( 19-C , 21-C ) :   1.3898
B( 19-C , 22-H ) :   0.9899 B( 20-C , 21-C ) :   1.3874 B( 20-C , 23-H ) :   0.9895
B( 21-C , 24-H ) :   0.9899 B( 25-C , 26-H ) :   0.9549 B( 25-C , 27-H ) :   0.9508
B( 25-C , 28-H ) :   0.9583 B( 29-C , 30-H ) :   0.9552 B( 29-C , 31-H ) :   0.9465
B( 29-C , 32-H ) :   0.9565 B( 33-C , 34-H ) :   0.9567 B( 33-C , 35-H ) :   0.9554
B( 33-C , 36-H ) :   0.9473 B( 37-C , 38-H ) :   0.9554 B( 37-C , 39-H ) :   0.9507
B( 37-C , 40-H ) :   0.9586

Dispersion correction           -0.009617567
FINAL SINGLE POINT ENERGY      -844.732914196063

DIPOLE MOMENT
-------------
                                X             Y             Z
Electronic contribution:      0.02389       0.00442      -0.11611
Nuclear contribution   :      0.12235       0.03814      -0.83893
                        -----------------------------------------
Total Dipole Moment    :      0.14623       0.04256      -0.95504
                        -----------------------------------------
Magnitude (a.u.)       :      0.96711
Magnitude (Debye)      :      2.45820

Rotational constants in cm-1:     0.023796     0.005931     0.005222
Rotational constants in MHz :   713.398456   177.805561   156.540105

                             ****ORCA TERMINATED NORMALLY****
TOTAL RUN TIME: 0 days 0 hours 3 minutes 38 seconds 505 msec
