                         Program Version 5.0.4 -  RELEASE  -
|  1> # ORCAForces - ../2023_04/pKa_prediction/extra_carbenes/imag/Ours/9+_Water_imag.inp
|  2> # Basic Mode
|  3> #
|  4> ! Opt FREQ wB97X D4 Def2-SVP SlowConv TightSCF DEFGRID2 Def2/J RIJCOSX CPCM(Water)
|  5>
|  6> %maxcore 4500
|  7>
|  8> %PAL NPROCS 4 END
|  9>
| 10> %geom
| 11> Maxiter 150
| 12> END
| 13>
| 14> * xyzfile 1 1 9+_Water_imag.xyz
| 15>
| 16>                          ****END OF INPUT****
 Total Charge           Charge          ....    1
 Multiplicity           Mult            ....    1
 Number of Electrons    NEL             ....   54
Dispersion correction           -0.001840859
FINAL SINGLE POINT ENERGY      -306.220370761039
Dispersion correction            ... Starting D4
Dispersion correction           -0.001840836
FINAL SINGLE POINT ENERGY      -306.220380467519
Dispersion correction            ... Starting D4
Dispersion correction           -0.001840734
FINAL SINGLE POINT ENERGY      -306.220409087843
Dispersion correction            ... Starting D4
FINAL SINGLE POINT ENERGY      -306.220413014849
FINAL SINGLE POINT ENERGY      -306.220423408218
FINAL SINGLE POINT ENERGY      -306.220427221628
Dispersion correction           -0.001840665
FINAL SINGLE POINT ENERGY      -306.220432451733
Dispersion correction            ... Starting D4
Dispersion correction           -0.001840643
FINAL SINGLE POINT ENERGY      -306.220434669727
Dispersion correction            ... Starting D4
                    ***********************HURRAY********************

CARTESIAN COORDINATES (ANGSTROEM)
---------------------------------
  C      0.028637    0.770267   -1.265357
  C     -0.028640   -0.770268   -1.265357
  N      0.014269    1.098333    0.165370
  N     -0.014271   -1.098333    0.165369
  C      0.000000   -0.000001    0.882870
  H     -0.837293    1.231863   -1.762334
  H     -0.948400   -1.164803   -1.723110
  H      0.837289   -1.231864   -1.762335
  H      0.948396    1.164803   -1.723111
  C      0.045145    2.458850    0.657943
  C     -0.045143   -2.458849    0.657942
  H     -0.845330    3.003445    0.310876
  H     -0.946486   -2.968482    0.286579
  H      0.845335   -3.003441    0.310880
  H      0.946492    2.968480    0.286586
  H      0.060033    2.448843    1.755198
  H     -0.060038   -2.448841    1.755197
  H      0.000001   -0.000001    1.977484

 Multiplicity           Mult            ....    1
 Number of Electrons    NEL             ....   54
 Basis Dimension        Dim             ....  153

ORBITAL ENERGIES
----------------

  NO   OCC          E(Eh)            E(eV)
   0   2.0000     -14.481594      -394.0642
   1   2.0000     -14.481562      -394.0633
   2   2.0000     -10.399153      -282.9754
   3   2.0000     -10.330750      -281.1140
   4   2.0000     -10.330725      -281.1133
   5   2.0000     -10.320194      -280.8268
   6   2.0000     -10.320168      -280.8260
   7   2.0000      -1.184643       -32.2358
   8   2.0000      -1.074401       -29.2359
   9   2.0000      -0.923606       -25.1326
  10   2.0000      -0.894967       -24.3533
  11   2.0000      -0.825957       -22.4754
  12   2.0000      -0.781839       -21.2749
  13   2.0000      -0.728689       -19.8286
  14   2.0000      -0.665387       -18.1061
  15   2.0000      -0.650262       -17.6945
  16   2.0000      -0.610064       -16.6007
  17   2.0000      -0.578893       -15.7525
  18   2.0000      -0.569546       -15.4981
  19   2.0000      -0.564780       -15.3684
  20   2.0000      -0.549972       -14.9655
  21   2.0000      -0.533612       -14.5203
  22   2.0000      -0.507872       -13.8199
  23   2.0000      -0.496259       -13.5039
  24   2.0000      -0.494311       -13.4509
  25   2.0000      -0.479903       -13.0588
  26   2.0000      -0.349411        -9.5079
  27   0.0000       0.061048         1.6612
  28   0.0000       0.138266         3.7624
  29   0.0000       0.155541         4.2325
  30   0.0000       0.161291         4.3890
  31   0.0000       0.192506         5.2383

MULLIKEN ATOMIC CHARGES
-----------------------
   0 C :    0.117471
   1 C :    0.117471
   2 N :   -0.342616
   3 N :   -0.342605
   4 C :    0.298294
   5 H :    0.089087
   6 H :    0.088808
   7 H :    0.089087
   8 H :    0.088809
   9 C :    0.085827
  10 C :    0.085826
  11 H :    0.079128
  12 H :    0.078332
  13 H :    0.079128
  14 H :    0.078333
  15 H :    0.084292
  16 H :    0.084291
  17 H :    0.141037
Sum of atomic charges:    1.0000000

LOEWDIN ATOMIC CHARGES
----------------------
   0 C :    0.067123
   1 C :    0.067123
   2 N :    0.014866
   3 N :    0.014876
   4 C :    0.191563
   5 H :    0.048975
   6 H :    0.048241
   7 H :    0.048975
   8 H :    0.048242
   9 C :    0.047464
  10 C :    0.047463
  11 H :    0.044230
  12 H :    0.044304
  13 H :    0.044230
  14 H :    0.044305
  15 H :    0.051326
  16 H :    0.051326
  17 H :    0.075366

  Mayer bond orders larger than 0.100000
B(  0-C ,  1-C ) :   1.0915 B(  0-C ,  2-N ) :   0.9250 B(  0-C ,  5-H ) :   0.9542
B(  0-C ,  8-H ) :   0.9533 B(  1-C ,  3-N ) :   0.9250 B(  1-C ,  6-H ) :   0.9533
B(  1-C ,  7-H ) :   0.9542 B(  2-N ,  4-C ) :   1.4100 B(  2-N ,  9-C ) :   0.9258
B(  3-N ,  4-C ) :   1.4100 B(  3-N , 10-C ) :   0.9258 B(  4-C , 17-H ) :   0.9612
B(  9-C , 11-H ) :   0.9734 B(  9-C , 14-H ) :   0.9729 B(  9-C , 15-H ) :   0.9730
B( 10-C , 12-H ) :   0.9729 B( 10-C , 13-H ) :   0.9734 B( 10-C , 16-H ) :   0.9730

Dispersion correction           -0.001840628
FINAL SINGLE POINT ENERGY      -306.220436129210

DIPOLE MOMENT
-------------
                                X             Y             Z
Electronic contribution:     -0.00000      -0.00001       0.66895
Nuclear contribution   :      0.00000       0.00000      -0.30545
                        -----------------------------------------
Total Dipole Moment    :      0.00000      -0.00001       0.36350
                        -----------------------------------------
Magnitude (a.u.)       :      0.36350
Magnitude (Debye)      :      0.92394

Dispersion correction in the Hessian             ... Starting D4

VIBRATIONAL FREQUENCIES
-----------------------

Scaling factor for frequencies =  1.000000000  (already applied!)

   0:         0.00 cm**-1
   1:         0.00 cm**-1
   2:         0.00 cm**-1
   3:         0.00 cm**-1
   4:         0.00 cm**-1
   5:         0.00 cm**-1
   6:        42.31 cm**-1
   7:       119.03 cm**-1
   8:       132.81 cm**-1
   9:       166.90 cm**-1
  10:       204.93 cm**-1
  11:       267.50 cm**-1
  12:       398.50 cm**-1
  13:       466.53 cm**-1
  14:       617.03 cm**-1
  15:       635.86 cm**-1
  16:       846.68 cm**-1
  17:       949.02 cm**-1
  18:       959.95 cm**-1
  19:      1012.05 cm**-1
  20:      1016.33 cm**-1
  21:      1094.70 cm**-1
  22:      1103.80 cm**-1
  23:      1115.24 cm**-1
  24:      1142.34 cm**-1
  25:      1158.89 cm**-1
  26:      1201.92 cm**-1
  27:      1229.44 cm**-1
  28:      1257.83 cm**-1
  29:      1332.55 cm**-1
  30:      1339.14 cm**-1
  31:      1351.73 cm**-1
  32:      1394.66 cm**-1
  33:      1436.28 cm**-1
  34:      1437.38 cm**-1
  35:      1438.13 cm**-1
  36:      1447.39 cm**-1
  37:      1467.67 cm**-1
  38:      1474.73 cm**-1
  39:      1475.43 cm**-1
  40:      1489.14 cm**-1
  41:      1627.29 cm**-1
  42:      1767.63 cm**-1
  43:      3076.15 cm**-1
  44:      3077.36 cm**-1
  45:      3103.99 cm**-1
  46:      3108.68 cm**-1
  47:      3167.89 cm**-1
  48:      3177.13 cm**-1
  49:      3182.20 cm**-1
  50:      3183.04 cm**-1
  51:      3209.50 cm**-1
  52:      3209.51 cm**-1
  53:      3263.95 cm**-1

IR SPECTRUM
-----------

 Mode   freq       eps      Int      T**2         TX        TY        TZ
       cm**-1   L/(mol*cm) km/mol    a.u.
----------------------------------------------------------------------------
  6:     42.31   0.000000    0.00  0.000000  (-0.000002 -0.000000  0.000154)
  7:    119.03   0.000641    3.24  0.001682  ( 0.040798 -0.004141 -0.000000)
  8:    132.81   0.000000    0.00  0.000000  ( 0.000004 -0.000001  0.000375)
  9:    166.90   0.001011    5.11  0.001890  ( 0.043429 -0.001935 -0.000000)
 10:    204.93   0.000000    0.00  0.000000  ( 0.000003 -0.000001  0.000548)
 11:    267.50   0.000003    0.02  0.000004  ( 0.000000 -0.000000  0.001887)
 12:    398.50   0.000203    1.03  0.000159  ( 0.000559  0.012606 -0.000000)
 13:    466.53   0.009303   47.01  0.006223  ( 0.078745 -0.004680 -0.000000)
 14:    617.03   0.000003    0.02  0.000002  (-0.000000 -0.000001 -0.001278)
 15:    635.86   0.001606    8.11  0.000788  ( 0.000612  0.028064 -0.000000)
 16:    846.68   0.000012    0.06  0.000004  ( 0.000913  0.001864  0.000000)
 17:    949.02   0.002623   13.25  0.000862  (-0.000000  0.000002  0.029368)
 18:    959.95   0.002637   13.32  0.000857  ( 0.000997 -0.029260  0.000002)
 19:   1012.05   0.001198    6.06  0.000369  ( 0.019157  0.001580  0.000000)
 20:   1016.33   0.000034    0.17  0.000010  ( 0.000000  0.000000 -0.003216)
 21:   1094.70   0.000001    0.00  0.000000  ( 0.000000  0.000001  0.000477)
 22:   1103.80   0.015239   77.01  0.004308  (-0.000852 -0.065632  0.000002)
 23:   1115.24   0.003443   17.40  0.000963  ( 0.000000  0.000002  0.031037)
 24:   1142.34   0.000262    1.32  0.000071  ( 0.008393 -0.001017  0.000000)
 25:   1158.89   0.000000    0.00  0.000000  (-0.000000  0.000001 -0.000226)
 26:   1201.92   0.023031  116.39  0.005980  ( 0.002788  0.077279  0.000001)
 27:   1229.44   0.002593   13.11  0.000658  ( 0.024692 -0.006970 -0.000000)
 28:   1257.83   0.000024    0.12  0.000006  (-0.000001  0.000000  0.002437)
 29:   1332.55   0.007177   36.27  0.001681  (-0.000711 -0.040992 -0.000000)
 30:   1339.14   0.002559   12.93  0.000596  (-0.000000  0.000001 -0.024419)
 31:   1351.73   0.015287   77.25  0.003529  ( 0.001798  0.059379 -0.000001)
 32:   1394.66   0.006819   34.46  0.001526  (-0.000000 -0.000001 -0.039063)
 33:   1436.28   0.012638   63.87  0.002746  ( 0.002528 -0.052340  0.000000)
 34:   1437.38   0.000001    0.00  0.000000  (-0.000006  0.000001 -0.000420)
 35:   1438.13   0.009545   48.24  0.002071  (-0.045414 -0.002965  0.000000)
 36:   1447.39   0.000710    3.59  0.000153  ( 0.000000  0.000003  0.012368)
 37:   1467.67   0.009060   45.79  0.001926  (-0.000000  0.000000 -0.043892)
 38:   1474.73   0.000026    0.13  0.000006  ( 0.000038 -0.002363  0.000000)
 39:   1475.43   0.000003    0.01  0.000001  (-0.000767 -0.000029 -0.000000)
 40:   1489.14   0.000455    2.30  0.000095  ( 0.000000  0.000000 -0.009761)
 41:   1627.29   0.006637   33.54  0.001273  (-0.000000 -0.000003  0.035676)
 42:   1767.63   0.166256  840.19  0.029351  ( 0.003484  0.171287  0.000000)
 43:   3076.15   0.013362   67.53  0.001356  ( 0.000596  0.036813  0.000000)
 44:   3077.36   0.000232    1.17  0.000023  (-0.000000  0.000001 -0.004846)
 45:   3103.99   0.003302   16.69  0.000332  ( 0.002469  0.018053  0.000001)
 46:   3108.68   0.002855   14.43  0.000287  (-0.000000 -0.000001  0.016928)
 47:   3167.89   0.000009    0.05  0.000001  (-0.000000 -0.000000 -0.000939)
 48:   3177.13   0.003984   20.13  0.000391  (-0.019766  0.000782  0.000000)
 49:   3182.20   0.000000    0.00  0.000000  ( 0.000001 -0.000000  0.000168)
 50:   3183.04   0.000827    4.18  0.000081  ( 0.009001 -0.000125 -0.000000)
 51:   3209.50   0.000506    2.55  0.000049  (-0.000193 -0.007008 -0.000056)
 52:   3209.51   0.000228    1.15  0.000022  (-0.000002 -0.000084  0.004705)
 53:   3263.95   0.003091   15.62  0.000296  ( 0.000000 -0.000000  0.017192)

--------------------------
THERMOCHEMISTRY AT 298.15K
--------------------------

Temperature         ... 298.15 K
Pressure            ... 1.00 atm
Total Mass          ... 99.16 AMU

Throughout the following assumptions are being made:
  (1) The electronic state is orbitally nondegenerate
  (2) There are no thermally accessible electronically excited states
  (3) Hindered rotations indicated by low frequency modes are not
      treated as such but are treated as vibrations and this may
      cause some error
  (4) All equations used are the standard statistical mechanics
      equations for an ideal gas
  (5) All vibrations are strictly harmonic

freq.      42.31  E(vib)   ...       0.53
freq.     119.03  E(vib)   ...       0.44
freq.     132.81  E(vib)   ...       0.42
freq.     166.90  E(vib)   ...       0.39
freq.     204.93  E(vib)   ...       0.35
freq.     267.50  E(vib)   ...       0.29
freq.     398.50  E(vib)   ...       0.20
freq.     466.53  E(vib)   ...       0.16
freq.     617.03  E(vib)   ...       0.09
freq.     635.86  E(vib)   ...       0.09
freq.     846.68  E(vib)   ...       0.04
freq.     949.02  E(vib)   ...       0.03
freq.     959.95  E(vib)   ...       0.03
freq.    1012.05  E(vib)   ...       0.02
freq.    1016.33  E(vib)   ...       0.02
freq.    1094.70  E(vib)   ...       0.02
freq.    1103.80  E(vib)   ...       0.02
freq.    1115.24  E(vib)   ...       0.01
freq.    1142.34  E(vib)   ...       0.01
freq.    1158.89  E(vib)   ...       0.01
freq.    1201.92  E(vib)   ...       0.01
freq.    1229.44  E(vib)   ...       0.01
freq.    1257.83  E(vib)   ...       0.01
freq.    1332.55  E(vib)   ...       0.01
freq.    1339.14  E(vib)   ...       0.01
freq.    1351.73  E(vib)   ...       0.01
freq.    1394.66  E(vib)   ...       0.00
freq.    1436.28  E(vib)   ...       0.00
freq.    1437.38  E(vib)   ...       0.00
freq.    1438.13  E(vib)   ...       0.00
freq.    1447.39  E(vib)   ...       0.00
freq.    1467.67  E(vib)   ...       0.00
freq.    1474.73  E(vib)   ...       0.00
freq.    1475.43  E(vib)   ...       0.00
freq.    1489.14  E(vib)   ...       0.00
freq.    1627.29  E(vib)   ...       0.00
freq.    1767.63  E(vib)   ...       0.00
freq.    3076.15  E(vib)   ...       0.00
freq.    3077.36  E(vib)   ...       0.00
freq.    3103.99  E(vib)   ...       0.00
freq.    3108.68  E(vib)   ...       0.00
freq.    3167.89  E(vib)   ...       0.00
freq.    3177.13  E(vib)   ...       0.00
freq.    3182.20  E(vib)   ...       0.00
freq.    3183.04  E(vib)   ...       0.00
freq.    3209.50  E(vib)   ...       0.00
freq.    3209.51  E(vib)   ...       0.00
freq.    3263.95  E(vib)   ...       0.00

------------
INNER ENERGY
------------

The inner energy is: U= E(el) + E(ZPE) + E(vib) + E(rot) + E(trans)
    E(el)   - is the total energy from the electronic structure calculation
              = E(kin-el) + E(nuc-el) + E(el-el) + E(nuc-nuc)
    E(ZPE)  - the the zero temperature vibrational energy from the frequency calculation
    E(vib)  - the the finite temperature correction to E(ZPE) due to population
              of excited vibrational states
    E(rot)  - is the rotational thermal energy
    E(trans)- is the translational thermal energy

Summary of contributions to the inner energy U:
Electronic energy                ...   -306.22043613 Eh
Zero point energy                ...      0.16488949 Eh     103.47 kcal/mol
Thermal vibrational correction   ...      0.00517681 Eh       3.25 kcal/mol
Thermal rotational correction    ...      0.00141627 Eh       0.89 kcal/mol
Thermal translational correction ...      0.00141627 Eh       0.89 kcal/mol
-----------------------------------------------------------------------
Total thermal energy                   -306.04753729 Eh

Summary of corrections to the electronic energy:
(perhaps to be used in another calculation)
Total thermal correction                  0.00800935 Eh       5.03 kcal/mol
Non-thermal (ZPE) correction              0.16488949 Eh     103.47 kcal/mol
-----------------------------------------------------------------------
Total correction                          0.17289884 Eh     108.50 kcal/mol

--------
ENTHALPY
--------

The enthalpy is H = U + kB*T
                kB is Boltzmann's constant
Total free energy                 ...   -306.04753729 Eh
Thermal Enthalpy correction       ...      0.00094421 Eh       0.59 kcal/mol
-----------------------------------------------------------------------
Total Enthalpy                    ...   -306.04659308 Eh

Note: Rotational entropy computed according to Herzberg
Infrared and Raman Spectra, Chapter V,1, Van Nostrand Reinhold, 1945
Point Group:  C2, Symmetry Number:   2
Rotational constants in cm-1:     0.191099     0.066455     0.051246

Vibrational entropy computed according to the QRRHO of S. Grimme
Chem.Eur.J. 2012 18 9955

-------
ENTROPY
-------

The entropy contributions are T*S = T*(S(el)+S(vib)+S(rot)+S(trans))
     S(el)   - electronic entropy
     S(vib)  - vibrational entropy
     S(rot)  - rotational entropy
     S(trans)- translational entropy
The entropies will be listed as multiplied by the temperature to get
units of energy

Electronic entropy                ...      0.00000000 Eh      0.00 kcal/mol
Vibrational entropy               ...      0.00923127 Eh      5.79 kcal/mol
Rotational entropy                ...      0.01232023 Eh      7.73 kcal/mol
Translational entropy             ...      0.01885925 Eh     11.83 kcal/mol
-----------------------------------------------------------------------
Final entropy term                ...      0.04041075 Eh     25.36 kcal/mol

In case the symmetry of your molecule has not been determined correctly
or in case you have a reason to use a different symmetry number we print
out the resulting rotational entropy values for sn=1,12 :
 --------------------------------------------------------
|  sn= 1 | S(rot)=       0.01297468 Eh      8.14 kcal/mol|
|  sn= 2 | S(rot)=       0.01232023 Eh      7.73 kcal/mol|
|  sn= 3 | S(rot)=       0.01193740 Eh      7.49 kcal/mol|
|  sn= 4 | S(rot)=       0.01166577 Eh      7.32 kcal/mol|
|  sn= 5 | S(rot)=       0.01145508 Eh      7.19 kcal/mol|
|  sn= 6 | S(rot)=       0.01128294 Eh      7.08 kcal/mol|
|  sn= 7 | S(rot)=       0.01113739 Eh      6.99 kcal/mol|
|  sn= 8 | S(rot)=       0.01101132 Eh      6.91 kcal/mol|
|  sn= 9 | S(rot)=       0.01090011 Eh      6.84 kcal/mol|
|  sn=10 | S(rot)=       0.01080063 Eh      6.78 kcal/mol|
|  sn=11 | S(rot)=       0.01071064 Eh      6.72 kcal/mol|
|  sn=12 | S(rot)=       0.01062848 Eh      6.67 kcal/mol|
 --------------------------------------------------------

-------------------
GIBBS FREE ENERGY
-------------------

The Gibbs free energy is G = H - T*S

                             ****ORCA TERMINATED NORMALLY****
TOTAL RUN TIME: 0 days 0 hours 6 minutes 25 seconds 786 msec
