                         Program Version 5.0.4 -  RELEASE  -
|  1> # ORCA 5.0.4 - 9+.inp # write input file
|  2> # Basic Mode
|  3> #
|  4> ! Freq wB97X Def2-SVP D4 SlowConv TightSCF DEFGRID2 Def2/J RIJCOSX
|  5>
|  6>
|  7>
|  8> %maxcore 4500
|  9>
| 10> %geom
| 11> Maxiter 150
| 12> END
| 13>
| 14> * xyzfile 1 1 9+.xyz
| 15>
| 16>                          ****END OF INPUT****

CARTESIAN COORDINATES (ANGSTROEM)
---------------------------------
  C      0.028637    0.770267   -1.265357
  C     -0.028640   -0.770268   -1.265357
  N      0.014269    1.098333    0.165370
  N     -0.014271   -1.098333    0.165369
  C      0.000000   -0.000001    0.882870
  H     -0.837293    1.231863   -1.762334
  H     -0.948400   -1.164803   -1.723110
  H      0.837289   -1.231864   -1.762335
  H      0.948396    1.164803   -1.723111
  C      0.045145    2.458850    0.657943
  C     -0.045143   -2.458849    0.657942
  H     -0.845330    3.003445    0.310876
  H     -0.946486   -2.968482    0.286579
  H      0.845335   -3.003441    0.310880
  H      0.946492    2.968480    0.286586
  H      0.060033    2.448843    1.755198
  H     -0.060038   -2.448841    1.755197
  H      0.000001   -0.000001    1.977484

 Total Charge           Charge          ....    1
 Multiplicity           Mult            ....    1
 Number of Electrons    NEL             ....   54
 Basis Dimension        Dim             ....  153

ORBITAL ENERGIES
----------------

  NO   OCC          E(Eh)            E(eV)
   0   2.0000     -14.643260      -398.4634
   1   2.0000     -14.643230      -398.4625
   2   2.0000     -10.563653      -287.4516
   3   2.0000     -10.491535      -285.4892
   4   2.0000     -10.491510      -285.4885
   5   2.0000     -10.475471      -285.0521
   6   2.0000     -10.475445      -285.0513
   7   2.0000      -1.347085       -36.6560
   8   2.0000      -1.235670       -33.6243
   9   2.0000      -1.085240       -29.5309
  10   2.0000      -1.054007       -28.6810
  11   2.0000      -0.983687       -26.7675
  12   2.0000      -0.942811       -25.6552
  13   2.0000      -0.892892       -24.2968
  14   2.0000      -0.823188       -22.4001
  15   2.0000      -0.811966       -22.0947
  16   2.0000      -0.769459       -20.9381
  17   2.0000      -0.736947       -20.0534
  18   2.0000      -0.732414       -19.9300
  19   2.0000      -0.723028       -19.6746
  20   2.0000      -0.708545       -19.2805
  21   2.0000      -0.693146       -18.8615
  22   2.0000      -0.665134       -18.0992
  23   2.0000      -0.655125       -17.8269
  24   2.0000      -0.653296       -17.7771
  25   2.0000      -0.639279       -17.3957
  26   2.0000      -0.509501       -13.8642
  27   0.0000      -0.102845        -2.7986
  28   0.0000      -0.016868        -0.4590
  29   0.0000      -0.003546        -0.0965
  30   0.0000       0.002373         0.0646
  31   0.0000       0.038502         1.0477

MULLIKEN ATOMIC CHARGES
-----------------------
   0 C :    0.099692
   1 C :    0.099693
   2 N :   -0.340919
   3 N :   -0.340917
   4 C :    0.283294
   5 H :    0.098444
   6 H :    0.098019
   7 H :    0.098444
   8 H :    0.098019
   9 C :    0.069421
  10 C :    0.069422
  11 H :    0.094657
  12 H :    0.093274
  13 H :    0.094657
  14 H :    0.093274
  15 H :    0.084473
  16 H :    0.084473
  17 H :    0.122580
Sum of atomic charges:    1.0000000

LOEWDIN ATOMIC CHARGES
----------------------
   0 C :    0.064842
   1 C :    0.064842
   2 N :    0.013653
   3 N :    0.013654
   4 C :    0.178768
   5 H :    0.051192
   6 H :    0.050390
   7 H :    0.051192
   8 H :    0.050390
   9 C :    0.047594
  10 C :    0.047594
  11 H :    0.049987
  12 H :    0.049788
  13 H :    0.049987
  14 H :    0.049788
  15 H :    0.050427
  16 H :    0.050427
  17 H :    0.065483

  Mayer bond orders larger than 0.100000
B(  0-C ,  1-C ) :   1.0852 B(  0-C ,  2-N ) :   0.9206 B(  0-C ,  5-H ) :   0.9546
B(  0-C ,  8-H ) :   0.9538 B(  1-C ,  3-N ) :   0.9206 B(  1-C ,  6-H ) :   0.9538
B(  1-C ,  7-H ) :   0.9546 B(  2-N ,  3-N ) :   0.1012 B(  2-N ,  4-C ) :   1.4145
B(  2-N ,  9-C ) :   0.9122 B(  3-N ,  4-C ) :   1.4145 B(  3-N , 10-C ) :   0.9122
B(  4-C , 17-H ) :   0.9643 B(  9-C , 11-H ) :   0.9717 B(  9-C , 14-H ) :   0.9714
B(  9-C , 15-H ) :   0.9729 B( 10-C , 12-H ) :   0.9714 B( 10-C , 13-H ) :   0.9717
B( 10-C , 16-H ) :   0.9729

Dispersion correction           -0.001840628
FINAL SINGLE POINT ENERGY      -306.137242472392

DIPOLE MOMENT
-------------
                                X             Y             Z
Electronic contribution:     -0.00000      -0.00000       0.56493
Nuclear contribution   :      0.00000       0.00000      -0.30546
                        -----------------------------------------
Total Dipole Moment    :      0.00000      -0.00000       0.25948
                        -----------------------------------------
Magnitude (a.u.)       :      0.25948
Magnitude (Debye)      :      0.65954

Dispersion correction in the Hessian             ... Starting D4

VIBRATIONAL FREQUENCIES
-----------------------

Scaling factor for frequencies =  1.000000000  (already applied!)

   0:         0.00 cm**-1
   1:         0.00 cm**-1
   2:         0.00 cm**-1
   3:         0.00 cm**-1
   4:         0.00 cm**-1
   5:         0.00 cm**-1
   6:        21.78 cm**-1
   7:       123.25 cm**-1
   8:       144.36 cm**-1
   9:       179.11 cm**-1
  10:       213.49 cm**-1
  11:       270.53 cm**-1
  12:       400.97 cm**-1
  13:       476.67 cm**-1
  14:       619.49 cm**-1
  15:       636.14 cm**-1
  16:       850.71 cm**-1
  17:       951.60 cm**-1
  18:       963.39 cm**-1
  19:      1009.16 cm**-1
  20:      1020.23 cm**-1
  21:      1095.37 cm**-1
  22:      1111.16 cm**-1
  23:      1118.59 cm**-1
  24:      1145.69 cm**-1
  25:      1161.43 cm**-1
  26:      1207.32 cm**-1
  27:      1235.47 cm**-1
  28:      1261.13 cm**-1
  29:      1339.00 cm**-1
  30:      1344.41 cm**-1
  31:      1356.74 cm**-1
  32:      1400.08 cm**-1
  33:      1451.31 cm**-1
  34:      1454.94 cm**-1
  35:      1456.40 cm**-1
  36:      1459.08 cm**-1
  37:      1484.14 cm**-1
  38:      1486.18 cm**-1
  39:      1494.15 cm**-1
  40:      1508.75 cm**-1
  41:      1629.56 cm**-1
  42:      1785.99 cm**-1
  43:      3080.13 cm**-1
  44:      3080.49 cm**-1
  45:      3103.88 cm**-1
  46:      3107.70 cm**-1
  47:      3167.97 cm**-1
  48:      3178.09 cm**-1
  49:      3186.23 cm**-1
  50:      3186.58 cm**-1
  51:      3215.14 cm**-1
  52:      3215.15 cm**-1
  53:      3255.30 cm**-1

IR SPECTRUM
-----------

 Mode   freq       eps      Int      T**2         TX        TY        TZ
       cm**-1   L/(mol*cm) km/mol    a.u.
----------------------------------------------------------------------------
  6:     21.78   0.000000    0.00  0.000001  ( 0.000001  0.000001 -0.000863)
  7:    123.25   0.000572    2.89  0.001448  ( 0.037905 -0.003307 -0.000000)
  8:    144.36   0.000000    0.00  0.000000  ( 0.000003 -0.000001  0.000410)
  9:    179.11   0.000350    1.77  0.000610  ( 0.024671 -0.001115 -0.000000)
 10:    213.49   0.000000    0.00  0.000000  ( 0.000000 -0.000000  0.000191)
 11:    270.53   0.000008    0.04  0.000009  ( 0.000000 -0.000000  0.003026)
 12:    400.97   0.000056    0.28  0.000043  ( 0.000482  0.006564  0.000000)
 13:    476.67   0.005095   25.75  0.003336  ( 0.057658 -0.003345 -0.000000)
 14:    619.49   0.000024    0.12  0.000012  (-0.000000 -0.000001 -0.003446)
 15:    636.14   0.001384    7.00  0.000679  ( 0.000460  0.026055 -0.000000)
 16:    850.71   0.000005    0.02  0.000002  (-0.000625  0.001164  0.000000)
 17:    951.60   0.001685    8.52  0.000553  (-0.000000  0.000001  0.023507)
 18:    963.39   0.000746    3.77  0.000242  ( 0.000873 -0.015518  0.000002)
 19:   1009.16   0.000789    3.99  0.000244  ( 0.015581  0.001041  0.000000)
 20:   1020.23   0.000017    0.09  0.000005  (-0.000000 -0.000000 -0.002293)
 21:   1095.37   0.000001    0.00  0.000000  (-0.000000  0.000001  0.000387)
 22:   1111.16   0.005452   27.55  0.001531  (-0.000363 -0.039130  0.000001)
 23:   1118.59   0.001519    7.67  0.000424  ( 0.000000  0.000002  0.020583)
 24:   1145.69   0.000053    0.27  0.000014  ( 0.003671 -0.000983  0.000000)
 25:   1161.43   0.000000    0.00  0.000000  ( 0.000000 -0.000000  0.000152)
 26:   1207.32   0.015573   78.70  0.004025  ( 0.002356  0.063400  0.000000)
 27:   1235.47   0.001988   10.05  0.000502  (-0.021707  0.005562  0.000000)
 28:   1261.13   0.000021    0.10  0.000005  ( 0.000000 -0.000000  0.002258)
 29:   1339.00   0.004000   20.21  0.000932  ( 0.000319  0.030529 -0.000000)
 30:   1344.41   0.003135   15.84  0.000728  (-0.000000  0.000001 -0.026974)
 31:   1356.74   0.008064   40.75  0.001855  ( 0.001286  0.043048  0.000000)
 32:   1400.08   0.003807   19.24  0.000849  (-0.000000 -0.000000 -0.029130)
 33:   1451.31   0.005406   27.32  0.001163  ( 0.004739 -0.033765  0.000000)
 34:   1454.94   0.000002    0.01  0.000000  ( 0.000004 -0.000000 -0.000685)
 35:   1456.40   0.008453   42.72  0.001811  ( 0.042452  0.002999  0.000000)
 36:   1459.08   0.000428    2.16  0.000092  ( 0.000002 -0.000001 -0.009569)
 37:   1484.14   0.006442   32.56  0.001355  (-0.000000 -0.000000 -0.036805)
 38:   1486.18   0.000024    0.12  0.000005  ( 0.000273  0.002214  0.000000)
 39:   1494.15   0.000035    0.18  0.000007  ( 0.000726  0.002624  0.000000)
 40:   1508.75   0.000727    3.67  0.000150  ( 0.000000  0.000000 -0.012263)
 41:   1629.56   0.005019   25.37  0.000961  (-0.000000 -0.000002  0.031003)
 42:   1785.99   0.104537  528.29  0.018266  ( 0.002781  0.135122  0.000000)
 43:   3080.13   0.003818   19.29  0.000387  ( 0.000476  0.019661  0.000008)
 44:   3080.49   0.000213    1.08  0.000022  ( 0.000001  0.000036 -0.004644)
 45:   3103.88   0.000973    4.92  0.000098  ( 0.001350  0.009798 -0.000001)
 46:   3107.70   0.000611    3.09  0.000061  ( 0.000000  0.000001  0.007830)
 47:   3167.97   0.000001    0.00  0.000000  (-0.000000 -0.000000 -0.000225)
 48:   3178.09   0.000306    1.55  0.000030  ( 0.005486 -0.000003 -0.000000)
 49:   3186.23   0.000000    0.00  0.000000  (-0.000012  0.000000  0.000068)
 50:   3186.58   0.000184    0.93  0.000018  ( 0.004242 -0.000129  0.000000)
 51:   3215.14   0.000073    0.37  0.000007  ( 0.000094  0.002661  0.000007)
 52:   3215.15   0.000026    0.13  0.000003  ( 0.000001  0.000012 -0.001584)
 53:   3255.30   0.001403    7.09  0.000135  ( 0.000000  0.000000  0.011598)

--------------------------
THERMOCHEMISTRY AT 298.15K
--------------------------

Temperature         ... 298.15 K
Pressure            ... 1.00 atm
Total Mass          ... 99.16 AMU

Throughout the following assumptions are being made:
  (1) The electronic state is orbitally nondegenerate
  (2) There are no thermally accessible electronically excited states
  (3) Hindered rotations indicated by low frequency modes are not
      treated as such but are treated as vibrations and this may
      cause some error
  (4) All equations used are the standard statistical mechanics
      equations for an ideal gas
  (5) All vibrations are strictly harmonic

freq.      21.78  E(vib)   ...       0.56
freq.     123.25  E(vib)   ...       0.43
freq.     144.36  E(vib)   ...       0.41
freq.     179.11  E(vib)   ...       0.37
freq.     213.49  E(vib)   ...       0.34
freq.     270.53  E(vib)   ...       0.29
freq.     400.97  E(vib)   ...       0.19
freq.     476.67  E(vib)   ...       0.15
freq.     619.49  E(vib)   ...       0.09
freq.     636.14  E(vib)   ...       0.09
freq.     850.71  E(vib)   ...       0.04
freq.     951.60  E(vib)   ...       0.03
freq.     963.39  E(vib)   ...       0.03
freq.    1009.16  E(vib)   ...       0.02
freq.    1020.23  E(vib)   ...       0.02
freq.    1095.37  E(vib)   ...       0.02
freq.    1111.16  E(vib)   ...       0.01
freq.    1118.59  E(vib)   ...       0.01
freq.    1145.69  E(vib)   ...       0.01
freq.    1161.43  E(vib)   ...       0.01
freq.    1207.32  E(vib)   ...       0.01
freq.    1235.47  E(vib)   ...       0.01
freq.    1261.13  E(vib)   ...       0.01
freq.    1339.00  E(vib)   ...       0.01
freq.    1344.41  E(vib)   ...       0.01
freq.    1356.74  E(vib)   ...       0.01
freq.    1400.08  E(vib)   ...       0.00
freq.    1451.31  E(vib)   ...       0.00
freq.    1454.94  E(vib)   ...       0.00
freq.    1456.40  E(vib)   ...       0.00
freq.    1459.08  E(vib)   ...       0.00
freq.    1484.14  E(vib)   ...       0.00
freq.    1486.18  E(vib)   ...       0.00
freq.    1494.15  E(vib)   ...       0.00
freq.    1508.75  E(vib)   ...       0.00
freq.    1629.56  E(vib)   ...       0.00
freq.    1785.99  E(vib)   ...       0.00
freq.    3080.13  E(vib)   ...       0.00
freq.    3080.49  E(vib)   ...       0.00
freq.    3103.88  E(vib)   ...       0.00
freq.    3107.70  E(vib)   ...       0.00
freq.    3167.97  E(vib)   ...       0.00
freq.    3178.09  E(vib)   ...       0.00
freq.    3186.23  E(vib)   ...       0.00
freq.    3186.58  E(vib)   ...       0.00
freq.    3215.14  E(vib)   ...       0.00
freq.    3215.15  E(vib)   ...       0.00
freq.    3255.30  E(vib)   ...       0.00

------------
INNER ENERGY
------------

The inner energy is: U= E(el) + E(ZPE) + E(vib) + E(rot) + E(trans)
    E(el)   - is the total energy from the electronic structure calculation
              = E(kin-el) + E(nuc-el) + E(el-el) + E(nuc-nuc)
    E(ZPE)  - the the zero temperature vibrational energy from the frequency calculation
    E(vib)  - the the finite temperature correction to E(ZPE) due to population
              of excited vibrational states
    E(rot)  - is the rotational thermal energy
    E(trans)- is the translational thermal energy

Summary of contributions to the inner energy U:
Electronic energy                ...   -306.13724247 Eh
Zero point energy                ...      0.16549617 Eh     103.85 kcal/mol
Thermal vibrational correction   ...      0.00513490 Eh       3.22 kcal/mol
Thermal rotational correction    ...      0.00141627 Eh       0.89 kcal/mol
Thermal translational correction ...      0.00141627 Eh       0.89 kcal/mol
-----------------------------------------------------------------------
Total thermal energy                   -305.96377886 Eh

Summary of corrections to the electronic energy:
(perhaps to be used in another calculation)
Total thermal correction                  0.00796744 Eh       5.00 kcal/mol
Non-thermal (ZPE) correction              0.16549617 Eh     103.85 kcal/mol
-----------------------------------------------------------------------
Total correction                          0.17346361 Eh     108.85 kcal/mol

--------
ENTHALPY
--------

The enthalpy is H = U + kB*T
                kB is Boltzmann's constant
Total free energy                 ...   -305.96377886 Eh
Thermal Enthalpy correction       ...      0.00094421 Eh       0.59 kcal/mol
-----------------------------------------------------------------------
Total Enthalpy                    ...   -305.96283465 Eh

Note: Rotational entropy computed according to Herzberg
Infrared and Raman Spectra, Chapter V,1, Van Nostrand Reinhold, 1945
Point Group:  C2, Symmetry Number:   2
Rotational constants in cm-1:     0.191099     0.066455     0.051246

Vibrational entropy computed according to the QRRHO of S. Grimme
Chem.Eur.J. 2012 18 9955

-------
ENTROPY
-------

The entropy contributions are T*S = T*(S(el)+S(vib)+S(rot)+S(trans))
     S(el)   - electronic entropy
     S(vib)  - vibrational entropy
     S(rot)  - rotational entropy
     S(trans)- translational entropy
The entropies will be listed as multiplied by the temperature to get
units of energy

Electronic entropy                ...      0.00000000 Eh      0.00 kcal/mol
Vibrational entropy               ...      0.00931118 Eh      5.84 kcal/mol
Rotational entropy                ...      0.01232023 Eh      7.73 kcal/mol
Translational entropy             ...      0.01885925 Eh     11.83 kcal/mol
-----------------------------------------------------------------------
Final entropy term                ...      0.04049066 Eh     25.41 kcal/mol

In case the symmetry of your molecule has not been determined correctly
or in case you have a reason to use a different symmetry number we print
out the resulting rotational entropy values for sn=1,12 :
 --------------------------------------------------------
|  sn= 1 | S(rot)=       0.01297469 Eh      8.14 kcal/mol|
|  sn= 2 | S(rot)=       0.01232023 Eh      7.73 kcal/mol|
|  sn= 3 | S(rot)=       0.01193740 Eh      7.49 kcal/mol|
|  sn= 4 | S(rot)=       0.01166577 Eh      7.32 kcal/mol|
|  sn= 5 | S(rot)=       0.01145508 Eh      7.19 kcal/mol|
|  sn= 6 | S(rot)=       0.01128294 Eh      7.08 kcal/mol|
|  sn= 7 | S(rot)=       0.01113739 Eh      6.99 kcal/mol|
|  sn= 8 | S(rot)=       0.01101132 Eh      6.91 kcal/mol|
|  sn= 9 | S(rot)=       0.01090011 Eh      6.84 kcal/mol|
|  sn=10 | S(rot)=       0.01080063 Eh      6.78 kcal/mol|
|  sn=11 | S(rot)=       0.01071064 Eh      6.72 kcal/mol|
|  sn=12 | S(rot)=       0.01062848 Eh      6.67 kcal/mol|
 --------------------------------------------------------

-------------------
GIBBS FREE ENERGY
-------------------

The Gibbs free energy is G = H - T*S

                             ****ORCA TERMINATED NORMALLY****
TOTAL RUN TIME: 0 days 0 hours 9 minutes 54 seconds 467 msec
