                         Program Version 5.0.4 -  RELEASE  -
|  1> ! SP wB97X D4 def2-SVP def2/J defgrid2
|  2> %maxcore 3000
|  3> %PAL NPROCS 4 END
|  4> * xyz 0 1
|  5> C -0.0089 0.7653 -1.2172
|  6> C 0.0089 -0.7653 -1.2172
|  7> N -0.1327 1.0653 0.2111
|  8> N 0.1327 -1.0653 0.2111
|  9> C -0.0 0.0 1.0188
| 10> H -0.8517 1.1897 -1.786
| 11> H 0.8517 -1.1897 -1.786
| 12> C -0.2138 2.4334 0.6527
| 13> C 0.2138 -2.4334 0.6527
| 14> H -1.0872 2.9396 0.2076
| 15> H 1.0872 -2.9395 0.2076
| 16> H -0.3132 2.4498 1.7457
| 17> H 0.3132 -2.4498 1.7457
| 18> H 0.6888 3.004 0.37
| 19> H -0.6888 -3.004 0.37
| 20> H 0.9226 1.2005 -1.6215
| 21> H -0.9226 -1.2005 -1.6215
| 22> **                         ****END OF INPUT****

CARTESIAN COORDINATES (ANGSTROEM)
---------------------------------
  C     -0.008900    0.765300   -1.217200
  C      0.008900   -0.765300   -1.217200
  N     -0.132700    1.065300    0.211100
  N      0.132700   -1.065300    0.211100
  C     -0.000000    0.000000    1.018800
  H     -0.851700    1.189700   -1.786000
  H      0.851700   -1.189700   -1.786000
  C     -0.213800    2.433400    0.652700
  C      0.213800   -2.433400    0.652700
  H     -1.087200    2.939600    0.207600
  H      1.087200   -2.939500    0.207600
  H     -0.313200    2.449800    1.745700
  H      0.313200   -2.449800    1.745700
  H      0.688800    3.004000    0.370000
  H     -0.688800   -3.004000    0.370000
  H      0.922600    1.200500   -1.621500
  H     -0.922600   -1.200500   -1.621500

 Total Charge           Charge          ....    0
 Multiplicity           Mult            ....    1
 Number of Electrons    NEL             ....   54
 Basis Dimension        Dim             ....  148

ORBITAL ENERGIES
----------------

  NO   OCC          E(Eh)            E(eV)
   0   2.0000     -14.415964      -392.2783
   1   2.0000     -14.415954      -392.2781
   2   2.0000     -10.307585      -280.4836
   3   2.0000     -10.307562      -280.4830
   4   2.0000     -10.294854      -280.1372
   5   2.0000     -10.294819      -280.1363
   6   2.0000     -10.269408      -279.4448
   7   2.0000      -1.113559       -30.3015
   8   2.0000      -1.013899       -27.5896
   9   2.0000      -0.886114       -24.1124
  10   2.0000      -0.844917       -22.9914
  11   2.0000      -0.791294       -21.5322
  12   2.0000      -0.726242       -19.7621
  13   2.0000      -0.660799       -17.9813
  14   2.0000      -0.615146       -16.7390
  15   2.0000      -0.611046       -16.6274
  16   2.0000      -0.567891       -15.4531
  17   2.0000      -0.550618       -14.9831
  18   2.0000      -0.525792       -14.3075
  19   2.0000      -0.517701       -14.0874
  20   2.0000      -0.517454       -14.0806
  21   2.0000      -0.475440       -12.9374
  22   2.0000      -0.473943       -12.8967
  23   2.0000      -0.467167       -12.7123
  24   2.0000      -0.417612       -11.3638
  25   2.0000      -0.305188        -8.3046
  26   2.0000      -0.297011        -8.0821
  27   0.0000       0.133728         3.6389
  28   0.0000       0.137897         3.7524
  29   0.0000       0.158175         4.3041
  30   0.0000       0.194134         5.2827
  31   0.0000       0.198215         5.3937

MULLIKEN ATOMIC CHARGES
-----------------------
   0 C :    0.112985
   1 C :    0.112986
   2 N :   -0.351707
   3 N :   -0.351715
   4 C :   -0.066483
   5 H :    0.029437
   6 H :    0.029436
   7 C :    0.118094
   8 C :    0.118116
   9 H :    0.021118
  10 H :    0.021110
  11 H :    0.054317
  12 H :    0.054315
  13 H :    0.020690
  14 H :    0.020692
  15 H :    0.028305
  16 H :    0.028304
Sum of atomic charges:    0.0000000

LOEWDIN ATOMIC CHARGES
----------------------
   0 C :    0.030986
   1 C :    0.030986
   2 N :   -0.062636
   3 N :   -0.062635
   4 C :   -0.201910
   5 H :    0.021124
   6 H :    0.021123
   7 C :    0.024849
   8 C :    0.024856
   9 H :    0.016017
  10 H :    0.016012
  11 H :    0.037037
  12 H :    0.037038
  13 H :    0.014976
  14 H :    0.014978
  15 H :    0.018599
  16 H :    0.018599

  Mayer bond orders larger than 0.100000
B(  0-C ,  1-C ) :   1.1005 B(  0-C ,  2-N ) :   0.9491 B(  0-C ,  5-H ) :   0.9566
B(  0-C , 15-H ) :   0.9487 B(  1-C ,  3-N ) :   0.9491 B(  1-C ,  6-H ) :   0.9566
B(  1-C , 16-H ) :   0.9487 B(  2-N ,  4-C ) :   1.2435 B(  2-N ,  7-C ) :   0.9829
B(  3-N ,  4-C ) :   1.2435 B(  3-N ,  8-C ) :   0.9829 B(  7-C ,  9-H ) :   0.9760
B(  7-C , 11-H ) :   0.9739 B(  7-C , 13-H ) :   0.9743 B(  8-C , 10-H ) :   0.9760
B(  8-C , 12-H ) :   0.9739 B(  8-C , 14-H ) :   0.9743

Dispersion correction           -0.001938050
FINAL SINGLE POINT ENERGY      -305.704740992845

DIPOLE MOMENT
-------------
                                X             Y             Z
Electronic contribution:      0.00001      -0.00010       1.09515
Nuclear contribution   :      0.00000       0.00008      -2.26212
                        -----------------------------------------
Total Dipole Moment    :      0.00001      -0.00002      -1.16697
                        -----------------------------------------
Magnitude (a.u.)       :      1.16697
Magnitude (Debye)      :      2.96620

Rotational constants in cm-1:     0.200014     0.067461     0.052510
Rotational constants in MHz :  5996.266163  2022.444593  1574.195811

                             ****ORCA TERMINATED NORMALLY****
TOTAL RUN TIME: 0 days 0 hours 0 minutes 28 seconds 801 msec
