                         Program Version 5.0.4 -  RELEASE  -
|  1> # ORCAForces - ../2023_04/pKa_prediction/extra_carbenes/Water/9_Water.inp
|  2> # Basic Mode
|  3> #
|  4> ! Opt FREQ wB97X D4 Def2-SVP SlowConv TightSCF DEFGRID2 Def2/J RIJCOSX CPCM(Water)
|  5>
|  6> %maxcore 4500
|  7>
|  8> %PAL NPROCS 4 END
|  9>
| 10> %geom
| 11> Maxiter 150
| 12> END
| 13>
| 14> * xyzfile 0 1 9.xyz
| 15>
| 16>                          ****END OF INPUT****
 Total Charge           Charge          ....    0
 Multiplicity           Mult            ....    1
 Number of Electrons    NEL             ....   54
Dispersion correction           -0.001935225
FINAL SINGLE POINT ENERGY      -305.715182791893
Dispersion correction            ... Starting D4
Dispersion correction           -0.001939093
FINAL SINGLE POINT ENERGY      -305.715720030303
Dispersion correction            ... Starting D4
Dispersion correction           -0.001939685
FINAL SINGLE POINT ENERGY      -305.715806228521
Dispersion correction            ... Starting D4
FINAL SINGLE POINT ENERGY      -305.715846189622
FINAL SINGLE POINT ENERGY      -305.715872116607
FINAL SINGLE POINT ENERGY      -305.715897681091
FINAL SINGLE POINT ENERGY      -305.715933051957
Dispersion correction           -0.001937957
FINAL SINGLE POINT ENERGY      -305.715960625183
Dispersion correction            ... Starting D4
Dispersion correction           -0.001938017
FINAL SINGLE POINT ENERGY      -305.715970866389
Dispersion correction            ... Starting D4
                    ***********************HURRAY********************

CARTESIAN COORDINATES (ANGSTROEM)
---------------------------------
  C     -0.008862    0.765292   -1.217162
  C      0.008859   -0.765292   -1.217162
  N     -0.132690    1.065254    0.211096
  N      0.132685   -1.065254    0.211096
  C     -0.000001    0.000000    1.018796
  H     -0.851715    1.189715   -1.786046
  H      0.851713   -1.189715   -1.786044
  C     -0.213820    2.433364    0.652684
  C      0.213822   -2.433364    0.652684
  H     -1.087216    2.939553    0.207562
  H      1.087224   -2.939546    0.207566
  H     -0.313224    2.449804    1.745711
  H      0.313221   -2.449804    1.745711
  H      0.688834    3.003999    0.369956
  H     -0.688827   -3.004006    0.369951
  H      0.922630    1.200517   -1.621472
  H     -0.922633   -1.200517   -1.621473

 Multiplicity           Mult            ....    1
 Number of Electrons    NEL             ....   54
 Basis Dimension        Dim             ....  148

ORBITAL ENERGIES
----------------

  NO   OCC          E(Eh)            E(eV)
   0   2.0000     -14.419614      -392.3777
   1   2.0000     -14.419604      -392.3774
   2   2.0000     -10.299329      -280.2590
   3   2.0000     -10.299306      -280.2584
   4   2.0000     -10.293110      -280.0898
   5   2.0000     -10.293076      -280.0888
   6   2.0000     -10.281759      -279.7809
   7   2.0000      -1.116167       -30.3725
   8   2.0000      -1.015686       -27.6382
   9   2.0000      -0.882322       -24.0092
  10   2.0000      -0.845104       -22.9964
  11   2.0000      -0.788557       -21.4577
  12   2.0000      -0.724315       -19.7096
  13   2.0000      -0.659828       -17.9548
  14   2.0000      -0.610584       -16.6148
  15   2.0000      -0.608724       -16.5642
  16   2.0000      -0.566322       -15.4104
  17   2.0000      -0.547993       -14.9116
  18   2.0000      -0.522431       -14.2161
  19   2.0000      -0.516064       -14.0428
  20   2.0000      -0.514433       -13.9984
  21   2.0000      -0.473620       -12.8879
  22   2.0000      -0.467405       -12.7187
  23   2.0000      -0.462492       -12.5850
  24   2.0000      -0.420761       -11.4495
  25   2.0000      -0.318100        -8.6560
  26   2.0000      -0.305051        -8.3009
  27   0.0000       0.125250         3.4082
  28   0.0000       0.150028         4.0825
  29   0.0000       0.164906         4.4873
  30   0.0000       0.201046         5.4707
  31   0.0000       0.207578         5.6485

MULLIKEN ATOMIC CHARGES
-----------------------
   0 C :    0.108174
   1 C :    0.108176
   2 N :   -0.348916
   3 N :   -0.348916
   4 C :   -0.157050
   5 H :    0.049821
   6 H :    0.049820
   7 C :    0.101825
   8 C :    0.101825
   9 H :    0.040571
  10 H :    0.040571
  11 H :    0.042769
  12 H :    0.042769
  13 H :    0.037996
  14 H :    0.037996
  15 H :    0.046285
  16 H :    0.046285
Sum of atomic charges:   -0.0000000

LOEWDIN ATOMIC CHARGES
----------------------
   0 C :    0.035510
   1 C :    0.035510
   2 N :   -0.058069
   3 N :   -0.058068
   4 C :   -0.267509
   5 H :    0.030323
   6 H :    0.030323
   7 C :    0.021697
   8 C :    0.021697
   9 H :    0.024595
  10 H :    0.024595
  11 H :    0.030422
  12 H :    0.030422
  13 H :    0.022576
  14 H :    0.022576
  15 H :    0.026700
  16 H :    0.026700

  Mayer bond orders larger than 0.100000
B(  0-C ,  1-C ) :   1.0956 B(  0-C ,  2-N ) :   0.9414 B(  0-C ,  5-H ) :   0.9576
B(  0-C , 15-H ) :   0.9508 B(  1-C ,  3-N ) :   0.9414 B(  1-C ,  6-H ) :   0.9576
B(  1-C , 16-H ) :   0.9508 B(  2-N ,  4-C ) :   1.2703 B(  2-N ,  7-C ) :   0.9762
B(  3-N ,  4-C ) :   1.2703 B(  3-N ,  8-C ) :   0.9762 B(  7-C ,  9-H ) :   0.9760
B(  7-C , 11-H ) :   0.9743 B(  7-C , 13-H ) :   0.9743 B(  8-C , 10-H ) :   0.9760
B(  8-C , 12-H ) :   0.9743 B(  8-C , 14-H ) :   0.9743

Dispersion correction           -0.001938064
FINAL SINGLE POINT ENERGY      -305.715972394396

DIPOLE MOMENT
-------------
                                X             Y             Z
Electronic contribution:     -0.00001      -0.00000       0.61096
Nuclear contribution   :      0.00002      -0.00000      -2.26230
                        -----------------------------------------
Total Dipole Moment    :      0.00000      -0.00000      -1.65134
                        -----------------------------------------
Magnitude (a.u.)       :      1.65134
Magnitude (Debye)      :      4.19737

Dispersion correction in the Hessian             ... Starting D4

VIBRATIONAL FREQUENCIES
-----------------------

Scaling factor for frequencies =  1.000000000  (already applied!)

   0:         0.00 cm**-1
   1:         0.00 cm**-1
   2:         0.00 cm**-1
   3:         0.00 cm**-1
   4:         0.00 cm**-1
   5:         0.00 cm**-1
   6:        90.51 cm**-1
   7:       120.27 cm**-1
   8:       158.68 cm**-1
   9:       204.24 cm**-1
  10:       233.89 cm**-1
  11:       294.13 cm**-1
  12:       424.81 cm**-1
  13:       471.55 cm**-1
  14:       625.04 cm**-1
  15:       657.90 cm**-1
  16:       845.78 cm**-1
  17:       939.90 cm**-1
  18:       962.67 cm**-1
  19:      1023.39 cm**-1
  20:      1094.90 cm**-1
  21:      1100.57 cm**-1
  22:      1103.26 cm**-1
  23:      1143.11 cm**-1
  24:      1163.25 cm**-1
  25:      1202.75 cm**-1
  26:      1237.85 cm**-1
  27:      1264.57 cm**-1
  28:      1323.47 cm**-1
  29:      1331.79 cm**-1
  30:      1368.39 cm**-1
  31:      1423.00 cm**-1
  32:      1431.52 cm**-1
  33:      1447.95 cm**-1
  34:      1448.25 cm**-1
  35:      1463.12 cm**-1
  36:      1479.04 cm**-1
  37:      1479.54 cm**-1
  38:      1496.60 cm**-1
  39:      1546.18 cm**-1
  40:      1568.27 cm**-1
  41:      3038.01 cm**-1
  42:      3041.04 cm**-1
  43:      3055.81 cm**-1
  44:      3063.63 cm**-1
  45:      3117.13 cm**-1
  46:      3119.12 cm**-1
  47:      3123.51 cm**-1
  48:      3131.69 cm**-1
  49:      3194.95 cm**-1
  50:      3194.97 cm**-1

IR SPECTRUM
-----------

 Mode   freq       eps      Int      T**2         TX        TY        TZ
       cm**-1   L/(mol*cm) km/mol    a.u.
----------------------------------------------------------------------------
  6:     90.51   0.000006    0.03  0.000020  (-0.000000 -0.000001  0.004449)
  7:    120.27   0.002306   11.66  0.005984  ( 0.076132 -0.013720  0.000000)
  8:    158.68   0.000001    0.01  0.000002  ( 0.000001 -0.000000 -0.001560)
  9:    204.24   0.003127   15.80  0.004778  ( 0.069010 -0.004007  0.000000)
 10:    233.89   0.000026    0.13  0.000035  (-0.000000 -0.000001  0.005885)
 11:    294.13   0.000304    1.54  0.000323  ( 0.000000 -0.000000 -0.017971)
 12:    424.81   0.002384   12.05  0.001751  ( 0.006833 -0.041282 -0.000000)
 13:    471.55   0.000973    4.92  0.000644  (-0.005849 -0.024693  0.000000)
 14:    625.04   0.000199    1.01  0.000100  (-0.000000 -0.000000 -0.009976)
 15:    657.90   0.007529   38.05  0.003571  ( 0.002917 -0.059687  0.000000)
 16:    845.78   0.000098    0.50  0.000036  (-0.000201 -0.006016 -0.000000)
 17:    939.90   0.003965   20.04  0.001316  (-0.000000  0.000000  0.036283)
 18:    962.67   0.000121    0.61  0.000039  ( 0.006159 -0.001160 -0.000000)
 19:   1023.39   0.000143    0.72  0.000044  ( 0.000000 -0.000000 -0.006597)
 20:   1094.90   0.000333    1.68  0.000095  ( 0.000000  0.000000  0.009741)
 21:   1100.57   0.009091   45.94  0.002578  (-0.006938  0.050295 -0.000000)
 22:   1103.26   0.000000    0.00  0.000000  ( 0.000000 -0.000002  0.000004)
 23:   1143.11   0.000432    2.18  0.000118  ( 0.001839  0.010697  0.000000)
 24:   1163.25   0.000001    0.00  0.000000  (-0.000000  0.000001 -0.000417)
 25:   1202.75   0.002820   14.25  0.000732  ( 0.027047 -0.000003 -0.000000)
 26:   1237.85   0.000260    1.31  0.000066  (-0.000000 -0.000000  0.008099)
 27:   1264.57   0.015412   77.88  0.003803  (-0.010384  0.060789  0.000000)
 28:   1323.47   0.019490   98.49  0.004596  (-0.002443  0.067746 -0.000000)
 29:   1331.79   0.000191    0.96  0.000045  ( 0.000000 -0.000000  0.006684)
 30:   1368.39   0.003391   17.14  0.000773  (-0.000000 -0.000000 -0.027808)
 31:   1423.00   0.014015   70.83  0.003074  (-0.001953 -0.055405  0.000000)
 32:   1431.52   0.001044    5.28  0.000228  (-0.000000  0.000001  0.015086)
 33:   1447.95   0.007899   39.92  0.001702  (-0.036258  0.019689  0.000000)
 34:   1448.25   0.000075    0.38  0.000016  ( 0.000001 -0.000001  0.004025)
 35:   1463.12   0.020981  106.03  0.004475  (-0.001472  0.066879 -0.000000)
 36:   1479.04   0.005535   27.97  0.001168  ( 0.000000 -0.000000  0.034175)
 37:   1479.54   0.000212    1.07  0.000045  (-0.000746 -0.006642  0.000000)
 38:   1496.60   0.000052    0.26  0.000011  (-0.000000  0.000000  0.003298)
 39:   1546.18   0.001188    6.01  0.000240  ( 0.000000  0.000002 -0.015488)
 40:   1568.27   0.075572  381.91  0.015038  (-0.005037  0.122524  0.000000)
 41:   3038.01   0.042652  215.55  0.004381  ( 0.004367  0.066046 -0.000000)
 42:   3041.04   0.000183    0.93  0.000019  (-0.000001 -0.000002 -0.004338)
 43:   3055.81   0.011378   57.50  0.001162  ( 0.016423  0.029870 -0.000000)
 44:   3063.63   0.010555   53.34  0.001075  ( 0.000000 -0.000000 -0.032790)
 45:   3117.13   0.001188    6.00  0.000119  ( 0.000006 -0.000000 -0.010904)
 46:   3119.12   0.025680  129.78  0.002569  (-0.050593  0.003110 -0.000001)
 47:   3123.51   0.000556    2.81  0.000056  ( 0.000002 -0.000000 -0.007456)
 48:   3131.69   0.004958   25.06  0.000494  (-0.021969  0.003381 -0.000000)
 49:   3194.95   0.004142   20.93  0.000405  (-0.000006 -0.000031  0.020115)
 50:   3194.97   0.000334    1.69  0.000033  (-0.001076 -0.005605 -0.000110)

--------------------------
THERMOCHEMISTRY AT 298.15K
--------------------------

Temperature         ... 298.15 K
Pressure            ... 1.00 atm
Total Mass          ... 98.15 AMU

Throughout the following assumptions are being made:
  (1) The electronic state is orbitally nondegenerate
  (2) There are no thermally accessible electronically excited states
  (3) Hindered rotations indicated by low frequency modes are not
      treated as such but are treated as vibrations and this may
      cause some error
  (4) All equations used are the standard statistical mechanics
      equations for an ideal gas
  (5) All vibrations are strictly harmonic

freq.      90.51  E(vib)   ...       0.47
freq.     120.27  E(vib)   ...       0.44
freq.     158.68  E(vib)   ...       0.39
freq.     204.24  E(vib)   ...       0.35
freq.     233.89  E(vib)   ...       0.32
freq.     294.13  E(vib)   ...       0.27
freq.     424.81  E(vib)   ...       0.18
freq.     471.55  E(vib)   ...       0.15
freq.     625.04  E(vib)   ...       0.09
freq.     657.90  E(vib)   ...       0.08
freq.     845.78  E(vib)   ...       0.04
freq.     939.90  E(vib)   ...       0.03
freq.     962.67  E(vib)   ...       0.03
freq.    1023.39  E(vib)   ...       0.02
freq.    1094.90  E(vib)   ...       0.02
freq.    1100.57  E(vib)   ...       0.02
freq.    1103.26  E(vib)   ...       0.02
freq.    1143.11  E(vib)   ...       0.01
freq.    1163.25  E(vib)   ...       0.01
freq.    1202.75  E(vib)   ...       0.01
freq.    1237.85  E(vib)   ...       0.01
freq.    1264.57  E(vib)   ...       0.01
freq.    1323.47  E(vib)   ...       0.01
freq.    1331.79  E(vib)   ...       0.01
freq.    1368.39  E(vib)   ...       0.01
freq.    1423.00  E(vib)   ...       0.00
freq.    1431.52  E(vib)   ...       0.00
freq.    1447.95  E(vib)   ...       0.00
freq.    1448.25  E(vib)   ...       0.00
freq.    1463.12  E(vib)   ...       0.00
freq.    1479.04  E(vib)   ...       0.00
freq.    1479.54  E(vib)   ...       0.00
freq.    1496.60  E(vib)   ...       0.00
freq.    1546.18  E(vib)   ...       0.00
freq.    1568.27  E(vib)   ...       0.00
freq.    3038.01  E(vib)   ...       0.00
freq.    3041.04  E(vib)   ...       0.00
freq.    3055.81  E(vib)   ...       0.00
freq.    3063.63  E(vib)   ...       0.00
freq.    3117.13  E(vib)   ...       0.00
freq.    3119.12  E(vib)   ...       0.00
freq.    3123.51  E(vib)   ...       0.00
freq.    3131.69  E(vib)   ...       0.00
freq.    3194.95  E(vib)   ...       0.00
freq.    3194.97  E(vib)   ...       0.00

------------
INNER ENERGY
------------

The inner energy is: U= E(el) + E(ZPE) + E(vib) + E(rot) + E(trans)
    E(el)   - is the total energy from the electronic structure calculation
              = E(kin-el) + E(nuc-el) + E(el-el) + E(nuc-nuc)
    E(ZPE)  - the the zero temperature vibrational energy from the frequency calculation
    E(vib)  - the the finite temperature correction to E(ZPE) due to population
              of excited vibrational states
    E(rot)  - is the rotational thermal energy
    E(trans)- is the translational thermal energy

Summary of contributions to the inner energy U:
Electronic energy                ...   -305.71597239 Eh
Zero point energy                ...      0.15092861 Eh      94.71 kcal/mol
Thermal vibrational correction   ...      0.00480996 Eh       3.02 kcal/mol
Thermal rotational correction    ...      0.00141627 Eh       0.89 kcal/mol
Thermal translational correction ...      0.00141627 Eh       0.89 kcal/mol
-----------------------------------------------------------------------
Total thermal energy                   -305.55740128 Eh

Summary of corrections to the electronic energy:
(perhaps to be used in another calculation)
Total thermal correction                  0.00764250 Eh       4.80 kcal/mol
Non-thermal (ZPE) correction              0.15092861 Eh      94.71 kcal/mol
-----------------------------------------------------------------------
Total correction                          0.15857112 Eh      99.50 kcal/mol

--------
ENTHALPY
--------

The enthalpy is H = U + kB*T
                kB is Boltzmann's constant
Total free energy                 ...   -305.55740128 Eh
Thermal Enthalpy correction       ...      0.00094421 Eh       0.59 kcal/mol
-----------------------------------------------------------------------
Total Enthalpy                    ...   -305.55645707 Eh

Note: Rotational entropy computed according to Herzberg
Infrared and Raman Spectra, Chapter V,1, Van Nostrand Reinhold, 1945
Point Group:  C2, Symmetry Number:   2
Rotational constants in cm-1:     0.200019     0.067463     0.052511

Vibrational entropy computed according to the QRRHO of S. Grimme
Chem.Eur.J. 2012 18 9955

-------
ENTROPY
-------

The entropy contributions are T*S = T*(S(el)+S(vib)+S(rot)+S(trans))
     S(el)   - electronic entropy
     S(vib)  - vibrational entropy
     S(rot)  - rotational entropy
     S(trans)- translational entropy
The entropies will be listed as multiplied by the temperature to get
units of energy

Electronic entropy                ...      0.00000000 Eh      0.00 kcal/mol
Vibrational entropy               ...      0.00836461 Eh      5.25 kcal/mol
Rotational entropy                ...      0.01228007 Eh      7.71 kcal/mol
Translational entropy             ...      0.01884478 Eh     11.83 kcal/mol
-----------------------------------------------------------------------
Final entropy term                ...      0.03948946 Eh     24.78 kcal/mol

In case the symmetry of your molecule has not been determined correctly
or in case you have a reason to use a different symmetry number we print
out the resulting rotational entropy values for sn=1,12 :
 --------------------------------------------------------
|  sn= 1 | S(rot)=       0.01293453 Eh      8.12 kcal/mol|
|  sn= 2 | S(rot)=       0.01228007 Eh      7.71 kcal/mol|
|  sn= 3 | S(rot)=       0.01189724 Eh      7.47 kcal/mol|
|  sn= 4 | S(rot)=       0.01162561 Eh      7.30 kcal/mol|
|  sn= 5 | S(rot)=       0.01141492 Eh      7.16 kcal/mol|
|  sn= 6 | S(rot)=       0.01124278 Eh      7.05 kcal/mol|
|  sn= 7 | S(rot)=       0.01109723 Eh      6.96 kcal/mol|
|  sn= 8 | S(rot)=       0.01097116 Eh      6.88 kcal/mol|
|  sn= 9 | S(rot)=       0.01085995 Eh      6.81 kcal/mol|
|  sn=10 | S(rot)=       0.01076047 Eh      6.75 kcal/mol|
|  sn=11 | S(rot)=       0.01067048 Eh      6.70 kcal/mol|
|  sn=12 | S(rot)=       0.01058832 Eh      6.64 kcal/mol|
 --------------------------------------------------------

-------------------
GIBBS FREE ENERGY
-------------------

The Gibbs free energy is G = H - T*S

Total enthalpy                    ...   -305.55645707 Eh
Total entropy correction          ...     -0.03948946 Eh    -24.78 kcal/mol

                             ****ORCA TERMINATED NORMALLY****
TOTAL RUN TIME: 0 days 0 hours 6 minutes 23 seconds 850 msec
