   * xtb version 6.6.1 (8d0f1dd) compiled by 'conda@1efc2f54142f' on 2023-08-01
          program call               : xtb struc.xyz --gfn2 --ceasefiles --opt

   ID    Z sym.   atoms
    1    6 C      1, 2, 5-7, 11-14, 27, 28
    2    7 N      3, 4
    3    1 H      8-10, 15-26, 29-34

          :  Hamiltonian                  GFN2-xTB          :
 * total energy  :   -39.7409831 Eh     change       -0.8176428E-09 Eh
 * total energy  :   -39.7585484 Eh     change       -0.1756530E-01 Eh
 * total energy  :   -39.7653510 Eh     change       -0.6802564E-02 Eh
 * total energy  :   -39.7689129 Eh     change       -0.3561935E-02 Eh
 * total energy  :   -39.7714011 Eh     change       -0.2488202E-02 Eh
 * total energy  :   -39.7732978 Eh     change       -0.1896666E-02 Eh
 * total energy  :   -39.7748051 Eh     change       -0.1507316E-02 Eh
 * total energy  :   -39.7758345 Eh     change       -0.1029352E-02 Eh
 * total energy  :   -39.7765841 Eh     change       -0.7496546E-03 Eh
 * total energy  :   -39.7769083 Eh     change       -0.3242006E-03 Eh
 * total energy  :   -39.7769285 Eh     change       -0.2012812E-04 Eh
 * total energy  :   -39.7772315 Eh     change       -0.3030361E-03 Eh
   *** GEOMETRY OPTIMIZATION CONVERGED AFTER 12 ITERATIONS ***

 final structure:
================
34
 xtb: 6.6.1 (8d0f1dd)
C           -2.32213198619792       -0.06545731073867        0.81397766630166
C            2.39071092362012       -0.30462600405883       -0.68489691847763
N           -1.04705661944159        0.32880215929036        0.18241520112997
N            1.02701066961768        0.22127939010673       -0.48575026846084
C           -0.79252736786451        1.45036014864099       -0.54412409533298
C            0.50236250498036        1.38384295251544       -0.95870050015476
C            0.07050935868472       -0.39416688156736        0.20208585603562
H           -1.51986538080271        2.21337946118540       -0.72255863319965
H            1.05699549254401        2.08513142093919       -1.54427111303733
H            0.17204992585503       -1.33213950064566        0.69610098919595
C           -2.90372262312831       -1.21971315849662       -0.00230682296820
C            2.26607142878984       -1.71664219674290       -1.26606356444258
C            3.09459769529325       -0.32927309192107        0.67347826854626
C           -2.03737090616470       -0.49677997295623        2.25299927856248
H           -2.22616339861005       -2.06655651570307       -0.02877166134105
H            3.22029418604020       -2.02545612372606       -1.69425509091395
H            3.22720381079534        0.67946521652889        1.06077242891597
H           -1.44667210243037       -1.40442322512945        2.29451808965181
H           -3.83616730803233       -1.54673750944526        0.44145520027679
H            1.51916118618315       -1.74044194510745       -2.06229170422672
H            2.53463522785136       -0.90965083798174        1.40142535776411
H           -2.97262608034666       -0.69558954253969        2.76105087772929
H           -3.10596450538830       -0.90723302935557       -1.02395690950840
H            1.99259281244976       -2.44396331001582       -0.50246563522577
H            4.07783327889336       -0.77776656237391        0.56176270989161
H           -1.52114457908124        0.28666055363508        2.79653712414268
C           -3.28310673223193        1.11822149338879        0.81225653603771
C            3.15049519520076        0.60039096847761       -1.65058850923294
H           -3.55841097692136        1.41425536842679       -0.19684157672389
H            2.62514350390763        0.69995166077826       -2.60053568308680
H           -4.19249962130422        0.82868669515238        1.32880207608878
H            4.12466306037106        0.16105967159697       -1.85578791518758
H            3.31797387677325        1.58209748108956       -1.21879777282431
H           -2.85993473330455        1.97113201415283        1.33760241327488

          :  Hamiltonian                  GFN2-xTB          :
         :: total energy             -39.777231489893 Eh    ::
         :: gradient norm              0.009930513120 Eh/a0 ::
         :: HOMO-LUMO gap              4.780577458187 eV    ::
         :: SCC energy               -40.388964745912 Eh    ::
         :: -> dispersion             -0.027913955870 Eh    ::
         :: repulsion energy           0.611455164727 Eh    ::

    * Orbital Energies and Occupations

         #    Occupation            Energy/Eh            Energy/eV
      -------------------------------------------------------------
         1        2.0000           -0.8783710             -23.9017
       ...           ...                  ...                  ...
        25        2.0000           -0.6020509             -16.3826
        26        2.0000           -0.6018136             -16.3762
        27        2.0000           -0.5975428             -16.2600
        28        2.0000           -0.5951540             -16.1950
        29        2.0000           -0.5941035             -16.1664
        30        2.0000           -0.5928822             -16.1331
        31        2.0000           -0.5901591             -16.0590
        32        2.0000           -0.5891262             -16.0309
        33        2.0000           -0.5822814             -15.8447
        34        2.0000           -0.5787657             -15.7490
        35        2.0000           -0.5779835             -15.7277
        36        2.0000           -0.5730647             -15.5939
        37        2.0000           -0.5694934             -15.4967 (HOMO)
        38                         -0.3938104             -10.7161 (LUMO)
        39                         -0.3557439              -9.6803
        40                         -0.1970915              -5.3631
        41                         -0.1498777              -4.0784
        42                         -0.0747267              -2.0334
        43                         -0.0610527              -1.6613
        44                         -0.0587449              -1.5985
        45                         -0.0466644              -1.2698
        46                         -0.0451106              -1.2275
        47                         -0.0367561              -1.0002
        48                         -0.0319393              -0.8691
       ...                                ...                  ...
        73                          0.4752284              12.9316
      -------------------------------------------------------------
                  HL-Gap            0.1756830 Eh            4.7806 eV

     #   Z          covCN         q      C6AA      α(0)
     1   6 C        3.837     0.075    19.304     6.251
     2   6 C        3.837     0.075    19.311     6.252
     3   7 N        2.869     0.047    20.426     6.713
     4   7 N        2.867     0.048    20.394     6.707
     5   6 C        3.079    -0.008    28.123     8.694
     6   6 C        3.084    -0.008    28.124     8.694
     7   6 C        3.123     0.054    26.615     8.448
     8   1 H        0.927     0.104     1.748     2.067
     9   1 H        0.927     0.104     1.746     2.066
    10   1 H        0.927     0.103     1.754     2.071
    11   6 C        3.761    -0.128    23.010     6.838
    12   6 C        3.758    -0.129    23.033     6.842
    13   6 C        3.759    -0.128    23.011     6.839
    14   6 C        3.761    -0.131    23.058     6.845
    15   1 H        0.925     0.054     2.273     2.358
    16   1 H        0.924     0.080     1.979     2.200
    17   1 H        0.925     0.061     2.187     2.312
    18   1 H        0.925     0.055     2.263     2.352
    19   1 H        0.925     0.081     1.969     2.194
    20   1 H        0.924     0.055     2.253     2.347
    21   1 H        0.925     0.053     2.284     2.363
    22   1 H        0.925     0.081     1.971     2.195
    23   1 H        0.925     0.060     2.200     2.319
    24   1 H        0.925     0.057     2.229     2.335
    25   1 H        0.925     0.081     1.967     2.193
    26   1 H        0.925     0.060     2.203     2.321
    27   6 C        3.760    -0.131    23.068     6.847
    28   6 C        3.759    -0.131    23.063     6.847
    29   1 H        0.925     0.062     2.179     2.309
    30   1 H        0.925     0.061     2.182     2.310
    31   1 H        0.925     0.080     1.983     2.202
    32   1 H        0.925     0.079     1.990     2.206
    33   1 H        0.925     0.063     2.169     2.303
    34   1 H        0.925     0.062     2.180     2.309

molecular dipole:
                 x           y           z       tot (Debye)
 q only:        0.009       0.150      -0.126
   full:        0.009       0.133      -0.117       0.451

           -------------------------------------------------
          | TOTAL ENERGY              -39.777231489893 Eh   |
          | GRADIENT NORM               0.009930513120 Eh/α |
          | HOMO-LUMO GAP               4.780577458187 eV   |
           -------------------------------------------------

 * finished run on 2024/02/12 at 14:13:52.403
