                         Program Version 5.0.4 -  RELEASE  -
|  1> # ORCA 5.0.4 - /users/bwb16179/postgrad/2024_06/pKa_Reviewer_Comments/Gas_Z=1/4_prot.inp # write input file
|  2> # Basic Mode
|  3> #
|  4> ! Opt Freq wB97X Def2-TZVP D4 SlowConv TightSCF Defgrid2 Def2/J RIJCOSX
|  5>
|  6> %PAL NPROCS 16 END
|  7>
|  8> %maxcore 4500
|  9>
| 10> %geom
| 11> Maxiter 150
| 12> END
| 13>
| 14> * xyzfile 0 1 butylamine.xyz
| 15>
| 16>                          ****END OF INPUT****
 Total Charge           Charge          ....    0
 Multiplicity           Mult            ....    1
 Number of Electrons    NEL             ....   42
Dispersion correction           -0.001348112
FINAL SINGLE POINT ENERGY      -213.819808999727
Dispersion correction            ... Starting D4
Dispersion correction           -0.001345932
FINAL SINGLE POINT ENERGY      -213.824556571592
Dispersion correction            ... Starting D4
Dispersion correction           -0.001345806
FINAL SINGLE POINT ENERGY      -213.824830488658
Dispersion correction            ... Starting D4
FINAL SINGLE POINT ENERGY      -213.824940053271
Dispersion correction           -0.001346492
FINAL SINGLE POINT ENERGY      -213.824946479602
Dispersion correction            ... Starting D4
Dispersion correction           -0.001346592
FINAL SINGLE POINT ENERGY      -213.824948794351
Dispersion correction            ... Starting D4
                    ***********************HURRAY********************

CARTESIAN COORDINATES (ANGSTROEM)
---------------------------------
  C     -3.912230    0.956606   -0.039080
  C     -2.734835   -0.006663    0.007689
  H     -4.866289    0.427383   -0.011724
  H     -3.890602    1.557508   -0.951646
  H     -3.888044    1.644963    0.809227
  C     -1.389701    0.705064   -0.036840
  H     -2.802371   -0.709407   -0.829609
  H     -2.791595   -0.611799    0.918792
  C     -0.209820   -0.250156    0.012139
  H     -1.305724    1.407712    0.798018
  H     -1.328808    1.306008   -0.953028
  N      1.050938    0.481944   -0.006884
  H     -0.304839   -0.977845   -0.808778
  H     -0.251685   -0.822753    0.943702
  H      1.151863    0.988120   -0.877203
  H      1.837521   -0.148634    0.063815

 Multiplicity           Mult            ....    1
 Number of Electrons    NEL             ....   42
 Basis Dimension        Dim             ....  221

ORBITAL ENERGIES
----------------

  NO   OCC          E(Eh)            E(eV)
   0   2.0000     -14.365553      -390.9066
   1   2.0000     -10.270317      -279.4695
   2   2.0000     -10.246985      -278.8347
   3   2.0000     -10.242288      -278.7068
   4   2.0000     -10.239153      -278.6215
   5   2.0000      -1.009981       -27.4830
   6   2.0000      -0.919140       -25.0111
   7   2.0000      -0.834671       -22.7126
   8   2.0000      -0.738743       -20.1022
   9   2.0000      -0.700683       -19.0666
  10   2.0000      -0.603877       -16.4323
  11   2.0000      -0.582027       -15.8378
  12   2.0000      -0.554777       -15.0963
  13   2.0000      -0.529535       -14.4094
  14   2.0000      -0.515902       -14.0384
  15   2.0000      -0.481766       -13.1095
  16   2.0000      -0.456486       -12.4216
  17   2.0000      -0.434996       -11.8368
  18   2.0000      -0.429733       -11.6936
  19   2.0000      -0.423790       -11.5319
  20   2.0000      -0.340860        -9.2753
  21   0.0000       0.116599         3.1728
  22   0.0000       0.128638         3.5004
  23   0.0000       0.149228         4.0607
  24   0.0000       0.160954         4.3798
  25   0.0000       0.169924         4.6239

MULLIKEN ATOMIC CHARGES
-----------------------
   0 C :   -0.337470
   1 C :   -0.167910
   2 H :    0.116223
   3 H :    0.104654
   4 H :    0.107905
   5 C :   -0.179376
   6 H :    0.086162
   7 H :    0.090102
   8 C :   -0.074447
   9 H :    0.101911
  10 H :    0.077811
  11 N :   -0.510994
  12 H :    0.076527
  13 H :    0.090769
  14 H :    0.207634
  15 H :    0.210499
Sum of atomic charges:   -0.0000000

LOEWDIN ATOMIC CHARGES
----------------------
   0 C :   -0.311574
   1 C :   -0.295986
   2 H :    0.116579
   3 H :    0.116734
   4 H :    0.117626
   5 C :   -0.277503
   6 H :    0.130777
   7 H :    0.132198
   8 C :   -0.343491
   9 H :    0.136791
  10 H :    0.130713
  11 N :   -0.177501
  12 H :    0.110096
  13 H :    0.126042
  14 H :    0.144867
  15 H :    0.143633

  Mayer bond orders larger than 0.100000
B(  0-C ,  1-C ) :   0.9722 B(  0-C ,  2-H ) :   0.9875 B(  0-C ,  3-H ) :   0.9829
B(  0-C ,  4-H ) :   0.9832 B(  1-C ,  5-C ) :   0.9711 B(  1-C ,  6-H ) :   0.9742
B(  1-C ,  7-H ) :   0.9789 B(  5-C ,  8-C ) :   0.9778 B(  5-C ,  9-H ) :   0.9708
B(  5-C , 10-H ) :   0.9721 B(  8-C , 11-N ) :   1.0197 B(  8-C , 12-H ) :   0.9865
B(  8-C , 13-H ) :   0.9680 B( 11-N , 14-H ) :   0.9413 B( 11-N , 15-H ) :   0.9447

Dispersion correction           -0.001346610
FINAL SINGLE POINT ENERGY      -213.824949315111

DIPOLE MOMENT
-------------
                                X             Y             Z
Electronic contribution:      2.79543      -0.23015       0.21663
Nuclear contribution   :     -2.76530      -0.10028      -0.60635
                        -----------------------------------------
Total Dipole Moment    :      0.03013      -0.33043      -0.38972
                        -----------------------------------------
Magnitude (a.u.)       :      0.51183
Magnitude (Debye)      :      1.30097

Dispersion correction in the Hessian             ... Starting D4

VIBRATIONAL FREQUENCIES
-----------------------

Scaling factor for frequencies =  1.000000000  (already applied!)

   0:         0.00 cm**-1
   1:         0.00 cm**-1
   2:         0.00 cm**-1
   3:         0.00 cm**-1
   4:         0.00 cm**-1
   5:         0.00 cm**-1
   6:       106.03 cm**-1
   7:       117.82 cm**-1
   8:       183.30 cm**-1
   9:       238.57 cm**-1
  10:       250.62 cm**-1
  11:       405.45 cm**-1
  12:       442.28 cm**-1
  13:       746.14 cm**-1
  14:       804.38 cm**-1
  15:       846.97 cm**-1
  16:       917.07 cm**-1
  17:       961.55 cm**-1
  18:      1004.13 cm**-1
  19:      1079.58 cm**-1
  20:      1100.68 cm**-1
  21:      1127.68 cm**-1
  22:      1171.45 cm**-1
  23:      1235.18 cm**-1
  24:      1277.43 cm**-1
  25:      1320.36 cm**-1
  26:      1334.41 cm**-1
  27:      1345.60 cm**-1
  28:      1405.70 cm**-1
  29:      1425.93 cm**-1
  30:      1451.61 cm**-1
  31:      1493.92 cm**-1
  32:      1498.72 cm**-1
  33:      1503.89 cm**-1
  34:      1512.84 cm**-1
  35:      1525.57 cm**-1
  36:      1665.70 cm**-1
  37:      2985.48 cm**-1
  38:      3037.82 cm**-1
  39:      3050.98 cm**-1
  40:      3059.47 cm**-1
  41:      3076.88 cm**-1
  42:      3081.67 cm**-1
  43:      3103.76 cm**-1
  44:      3131.88 cm**-1
  45:      3140.13 cm**-1
  46:      3547.58 cm**-1
  47:      3628.86 cm**-1

IR SPECTRUM
-----------

 Mode   freq       eps      Int      T**2         TX        TY        TZ
       cm**-1   L/(mol*cm) km/mol    a.u.
----------------------------------------------------------------------------
  6:    106.03   0.000815    4.12  0.002398  ( 0.007160 -0.038870  0.028906)
  7:    117.82   0.000176    0.89  0.000465  ( 0.018774  0.009388 -0.004963)
  8:    183.30   0.000162    0.82  0.000275  (-0.003053  0.014016 -0.008329)
  9:    238.57   0.006760   34.16  0.008842  ( 0.057070 -0.054775  0.050844)
 10:    250.62   0.001344    6.79  0.001673  ( 0.027964 -0.020708  0.021501)
 11:    405.45   0.000005    0.02  0.000004  (-0.001252 -0.001258 -0.000696)
 12:    442.28   0.001818    9.19  0.001283  (-0.031712  0.000573 -0.016631)
 13:    746.14   0.000658    3.32  0.000275  ( 0.000561  0.005954  0.015467)
 14:    804.38   0.007404   37.42  0.002873  ( 0.026251  0.040463  0.023371)
 15:    846.97   0.020810  105.16  0.007667  (-0.043243 -0.058715 -0.048475)
 16:    917.07   0.000269    1.36  0.000091  (-0.007867  0.002882  0.004603)
 17:    961.55   0.000824    4.17  0.000268  ( 0.004317  0.011596  0.010697)
 18:   1004.13   0.001008    5.09  0.000313  (-0.013434 -0.011101 -0.003095)
 19:   1079.58   0.000077    0.39  0.000022  (-0.000348  0.003947  0.002584)
 20:   1100.68   0.000370    1.87  0.000105  ( 0.008503  0.002753  0.005001)
 21:   1127.68   0.002583   13.05  0.000715  (-0.026237 -0.004880  0.001634)
 22:   1171.45   0.001350    6.82  0.000360  ( 0.000151 -0.014118 -0.012655)
 23:   1235.18   0.000061    0.31  0.000015  ( 0.002309  0.002278 -0.002209)
 24:   1277.43   0.000325    1.64  0.000079  (-0.006129  0.000881  0.006398)
 25:   1320.36   0.000068    0.34  0.000016  ( 0.002813 -0.001232  0.002571)
 26:   1334.41   0.000093    0.47  0.000022  ( 0.004529  0.000710 -0.000890)
 27:   1345.60   0.000289    1.46  0.000067  (-0.007112 -0.003709 -0.001616)
 28:   1405.70   0.000083    0.42  0.000018  (-0.004206  0.000512  0.000632)
 29:   1425.93   0.000721    3.64  0.000158  ( 0.007131 -0.010337  0.000362)
 30:   1451.61   0.002728   13.79  0.000586  ( 0.023112  0.006734 -0.002629)
 31:   1493.92   0.000071    0.36  0.000015  ( 0.001479  0.003269 -0.001402)
 32:   1498.72   0.000353    1.79  0.000074  ( 0.005701 -0.001998 -0.006089)
 33:   1503.89   0.001602    8.10  0.000332  ( 0.001101 -0.001672  0.018122)
 34:   1512.84   0.001221    6.17  0.000252  (-0.008161 -0.013390 -0.002441)
 35:   1525.57   0.000716    3.62  0.000146  (-0.005088  0.010829 -0.001813)
 36:   1665.70   0.007320   36.99  0.001371  (-0.027791 -0.001275  0.024441)
 37:   2985.48   0.014457   73.06  0.001511  ( 0.010823  0.032694  0.018031)
 38:   3037.82   0.002897   14.64  0.000298  (-0.003833 -0.014327  0.008813)
 39:   3050.98   0.008450   42.70  0.000864  ( 0.001223  0.029331 -0.001564)
 40:   3059.47   0.005814   29.38  0.000593  (-0.018383  0.015888 -0.001640)
 41:   3076.88   0.005031   25.43  0.000510  ( 0.000603  0.018257 -0.013289)
 42:   3081.67   0.000858    4.34  0.000087  (-0.001072 -0.008211  0.004278)
 43:   3103.76   0.010313   52.12  0.001037  (-0.000522  0.002564  0.032094)
 44:   3131.88   0.011549   58.36  0.001151  ( 0.001618 -0.000562 -0.033880)
 45:   3140.13   0.007135   36.06  0.000709  ( 0.018952  0.018677  0.001049)
 46:   3547.58   0.000006    0.03  0.000001  ( 0.000098 -0.000469  0.000550)
 47:   3628.86   0.000252    1.27  0.000022  (-0.001679  0.003576 -0.002463)

--------------------------
THERMOCHEMISTRY AT 298.15K
--------------------------

Temperature         ... 298.15 K
Pressure            ... 1.00 atm
Total Mass          ... 73.14 AMU

Throughout the following assumptions are being made:
  (1) The electronic state is orbitally nondegenerate
  (2) There are no thermally accessible electronically excited states
  (3) Hindered rotations indicated by low frequency modes are not
      treated as such but are treated as vibrations and this may
      cause some error
  (4) All equations used are the standard statistical mechanics
      equations for an ideal gas
  (5) All vibrations are strictly harmonic

freq.     106.03  E(vib)   ...       0.45
freq.     117.82  E(vib)   ...       0.44
freq.     183.30  E(vib)   ...       0.37
freq.     238.57  E(vib)   ...       0.32
freq.     250.62  E(vib)   ...       0.30
freq.     405.45  E(vib)   ...       0.19
freq.     442.28  E(vib)   ...       0.17
freq.     746.14  E(vib)   ...       0.06
freq.     804.38  E(vib)   ...       0.05
freq.     846.97  E(vib)   ...       0.04
freq.     917.07  E(vib)   ...       0.03
freq.     961.55  E(vib)   ...       0.03
freq.    1004.13  E(vib)   ...       0.02
freq.    1079.58  E(vib)   ...       0.02
freq.    1100.68  E(vib)   ...       0.02
freq.    1127.68  E(vib)   ...       0.01
freq.    1171.45  E(vib)   ...       0.01
freq.    1235.18  E(vib)   ...       0.01
freq.    1277.43  E(vib)   ...       0.01
freq.    1320.36  E(vib)   ...       0.01
freq.    1334.41  E(vib)   ...       0.01
freq.    1345.60  E(vib)   ...       0.01
freq.    1405.70  E(vib)   ...       0.00
freq.    1425.93  E(vib)   ...       0.00
freq.    1451.61  E(vib)   ...       0.00
freq.    1493.92  E(vib)   ...       0.00
freq.    1498.72  E(vib)   ...       0.00
freq.    1503.89  E(vib)   ...       0.00
freq.    1512.84  E(vib)   ...       0.00
freq.    1525.57  E(vib)   ...       0.00
freq.    1665.70  E(vib)   ...       0.00
freq.    2985.48  E(vib)   ...       0.00
freq.    3037.82  E(vib)   ...       0.00
freq.    3050.98  E(vib)   ...       0.00
freq.    3059.47  E(vib)   ...       0.00
freq.    3076.88  E(vib)   ...       0.00
freq.    3081.67  E(vib)   ...       0.00
freq.    3103.76  E(vib)   ...       0.00
freq.    3131.88  E(vib)   ...       0.00
freq.    3140.13  E(vib)   ...       0.00
freq.    3547.58  E(vib)   ...       0.00
freq.    3628.86  E(vib)   ...       0.00

------------
INNER ENERGY
------------

The inner energy is: U= E(el) + E(ZPE) + E(vib) + E(rot) + E(trans)
    E(el)   - is the total energy from the electronic structure calculation
              = E(kin-el) + E(nuc-el) + E(el-el) + E(nuc-nuc)
    E(ZPE)  - the the zero temperature vibrational energy from the frequency calculation
    E(vib)  - the the finite temperature correction to E(ZPE) due to population
              of excited vibrational states
    E(rot)  - is the rotational thermal energy
    E(trans)- is the translational thermal energy

Summary of contributions to the inner energy U:
Electronic energy                ...   -213.82494932 Eh
Zero point energy                ...      0.15114528 Eh      94.84 kcal/mol
Thermal vibrational correction   ...      0.00413824 Eh       2.60 kcal/mol
Thermal rotational correction    ...      0.00141627 Eh       0.89 kcal/mol
Thermal translational correction ...      0.00141627 Eh       0.89 kcal/mol
-----------------------------------------------------------------------
Total thermal energy                   -213.66683325 Eh

Summary of corrections to the electronic energy:
(perhaps to be used in another calculation)
Total thermal correction                  0.00697078 Eh       4.37 kcal/mol
Non-thermal (ZPE) correction              0.15114528 Eh      94.84 kcal/mol
-----------------------------------------------------------------------
Total correction                          0.15811606 Eh      99.22 kcal/mol

--------
ENTHALPY
--------

The enthalpy is H = U + kB*T
                kB is Boltzmann's constant
Total free energy                 ...   -213.66683325 Eh
Thermal Enthalpy correction       ...      0.00094421 Eh       0.59 kcal/mol
-----------------------------------------------------------------------
Total Enthalpy                    ...   -213.66588904 Eh

Note: Only C1 symmetry has been detected, increase convergence thresholds
      if your molecule has a higher symmetry. Symmetry factor of 1.0 is
      used for the rotational entropy correction.

Note: Rotational entropy computed according to Herzberg
Infrared and Raman Spectra, Chapter V,1, Van Nostrand Reinhold, 1945
Point Group:  C1, Symmetry Number:   1
Rotational constants in cm-1:     0.607293     0.065907     0.062484

Vibrational entropy computed according to the QRRHO of S. Grimme
Chem.Eur.J. 2012 18 9955

-------
ENTROPY
-------

The entropy contributions are T*S = T*(S(el)+S(vib)+S(rot)+S(trans))
     S(el)   - electronic entropy
     S(vib)  - vibrational entropy
     S(rot)  - rotational entropy
     S(trans)- translational entropy
The entropies will be listed as multiplied by the temperature to get
units of energy

Electronic entropy                ...      0.00000000 Eh      0.00 kcal/mol
Vibrational entropy               ...      0.00719205 Eh      4.51 kcal/mol
Rotational entropy                ...      0.01233915 Eh      7.74 kcal/mol
Translational entropy             ...      0.01842822 Eh     11.56 kcal/mol
-----------------------------------------------------------------------
Final entropy term                ...      0.03795942 Eh     23.82 kcal/mol

In case the symmetry of your molecule has not been determined correctly
or in case you have a reason to use a different symmetry number we print
out the resulting rotational entropy values for sn=1,12 :
 --------------------------------------------------------
|  sn= 1 | S(rot)=       0.01233915 Eh      7.74 kcal/mol|
|  sn= 2 | S(rot)=       0.01168469 Eh      7.33 kcal/mol|
|  sn= 3 | S(rot)=       0.01130186 Eh      7.09 kcal/mol|
|  sn= 4 | S(rot)=       0.01103024 Eh      6.92 kcal/mol|
|  sn= 5 | S(rot)=       0.01081955 Eh      6.79 kcal/mol|
|  sn= 6 | S(rot)=       0.01064740 Eh      6.68 kcal/mol|
|  sn= 7 | S(rot)=       0.01050186 Eh      6.59 kcal/mol|
|  sn= 8 | S(rot)=       0.01037578 Eh      6.51 kcal/mol|
|  sn= 9 | S(rot)=       0.01026457 Eh      6.44 kcal/mol|
|  sn=10 | S(rot)=       0.01016509 Eh      6.38 kcal/mol|
|  sn=11 | S(rot)=       0.01007510 Eh      6.32 kcal/mol|
|  sn=12 | S(rot)=       0.00999295 Eh      6.27 kcal/mol|
 --------------------------------------------------------

-------------------
GIBBS FREE ENERGY
-------------------

The Gibbs free energy is G = H - T*S

                             ****ORCA TERMINATED NORMALLY****
TOTAL RUN TIME: 0 days 0 hours 3 minutes 9 seconds 576 msec
