                         Program Version 5.0.4 -  RELEASE  -
|  1> ! Opt FREQ wB97X D4 Def2-SVP SlowConv TightSCF DEFGRID2 Def2/J RIJCOSX
|  2> %MAXCORE 4000
|  3> %scf MaxIter 20000 end
|  4> %geom
|  5> MaxIter 500
|  6> end
|  7> %PAL NPROCS 8 END
|  8>
|  9> * xyz 0 1
| 10> C 0.73261 0.74665 -2.80208
| 11> C 0.87934 -0.55707 -2.49636
| 12> C 1.68094 0.68132 -0.70749
| 13> N 1.23794 1.4786 -1.71211
| 14> N 1.50878 -0.58103 -1.26887
| 15> C 0.35284 1.32057 -4.14185
| 16> C 0.52817 -1.74812 -3.30522
| 17> H -0.19838 0.57487 -4.79196
| 18> H -0.03677 -1.35634 -4.20899
| 19> H -0.08654 -2.47502 -2.72438
| 20> H -0.28293 2.20795 -4.16269
| 21> H 1.23617 1.57118 -4.7597
| 22> H 1.41735 -2.22587 -3.67804
| 23> C -0.61804 3.08518 -1.21894
| 24> C 1.68222 -1.89474 0.77618
| 25> C 3.54676 -1.95371 -1.0175
| 26> C 1.82557 3.60945 -0.57474
| 27> C 0.89319 2.92798 -1.55498
| 28> C 2.04842 -1.79422 -0.70549
| 29> H -0.97993 4.13779 -1.35853
| 30> H 0.62028 -1.94247 0.92517
| 31> H 3.81725 -1.53984 -2.00319
| 32> H 2.82907 3.29253 -0.90028
| 33> H -1.24968 2.41464 -1.8249
| 34> H 2.07628 -0.99539 1.30021
| 35> H 4.11354 -1.33701 -0.2611
| 36> H 1.67375 3.20323 0.4227
| 37> H -0.81069 2.86351 -0.15072
| 38> H 2.08606 -2.80229 1.24663
| 39> H 3.8615 -2.97036 -0.91656
| 40> H 1.61391 4.6615 -0.61266
| 41> H 1.0682 3.419 -2.49569
| 42> H 1.51839 -2.62363 -1.20132
| 43> **                         ****END OF INPUT****
 Total Charge           Charge          ....    0
 Multiplicity           Mult            ....    1
 Number of Electrons    NEL             ....  100
Dispersion correction           -0.005757944
FINAL SINGLE POINT ENERGY      -540.161881470165
Dispersion correction            ... Starting D4
Dispersion correction           -0.005763850
FINAL SINGLE POINT ENERGY      -540.177287661082
Dispersion correction            ... Starting D4
Dispersion correction           -0.005764645
FINAL SINGLE POINT ENERGY      -540.181776969291
Dispersion correction            ... Starting D4
FINAL SINGLE POINT ENERGY      -540.183602541272
FINAL SINGLE POINT ENERGY      -540.184589979164
FINAL SINGLE POINT ENERGY      -540.185246358372
FINAL SINGLE POINT ENERGY      -540.185716743562
FINAL SINGLE POINT ENERGY      -540.185990341432
FINAL SINGLE POINT ENERGY      -540.186069443893
FINAL SINGLE POINT ENERGY      -540.186092535633
FINAL SINGLE POINT ENERGY      -540.186109126413
FINAL SINGLE POINT ENERGY      -540.186115564847
Dispersion correction           -0.005753331
FINAL SINGLE POINT ENERGY      -540.186118219797
Dispersion correction            ... Starting D4
Dispersion correction           -0.005753776
FINAL SINGLE POINT ENERGY      -540.186119607486
Dispersion correction            ... Starting D4
                    ***********************HURRAY********************

CARTESIAN COORDINATES (ANGSTROEM)
---------------------------------
  C      0.708806    0.729700   -2.930457
  C      0.986618   -0.573921   -2.657465
  C      1.469042    0.634043   -0.769853
  N      1.020662    1.435288   -1.767657
  N      1.435391   -0.597270   -1.336145
  C      0.181327    1.366949   -4.173052
  C      0.866939   -1.790454   -3.514349
  H      0.002400    0.604101   -4.943286
  H      0.547237   -1.510547   -4.527620
  H      0.125518   -2.504074   -3.118923
  H     -0.773419    1.888723   -3.996812
  H      0.889919    2.100256   -4.591488
  H      1.826287   -2.325404   -3.605943
  C     -0.526558    3.113038   -0.863991
  C      1.519224   -1.816036    0.802894
  C      3.448646   -1.905688   -0.829672
  C      1.970704    3.519241   -0.865514
  C      0.795810    2.871812   -1.586098
  C      1.935610   -1.797508   -0.661320
  H     -0.726149    4.190913   -0.760398
  H      0.425452   -1.752827    0.901006
  H      3.731808   -1.903617   -1.894300
  H      2.908134    3.353659   -1.417122
  H     -1.366943    2.656370   -1.410097
  H      1.953706   -0.955693    1.330507
  H      3.937086   -1.045747   -0.345108
  H      2.087747    3.079221    0.134710
  H     -0.486263    2.661453    0.139318
  H      1.863730   -2.747428    1.278113
  H      3.830608   -2.832585   -0.374095
  H      1.805983    4.603493   -0.769316
  H      0.727372    3.306559   -2.596820
  H      1.463138   -2.657180   -1.165097

 Multiplicity           Mult            ....    1
 Number of Electrons    NEL             ....  100
 Basis Dimension        Dim             ....  282

ORBITAL ENERGIES
----------------

  NO   OCC          E(Eh)            E(eV)
   0   2.0000     -14.430507      -392.6741
   1   2.0000     -14.430355      -392.6699
   2   2.0000     -10.304970      -280.4125
   3   2.0000     -10.304732      -280.4060
   4   2.0000     -10.288453      -279.9630
   5   2.0000     -10.287850      -279.9466
   6   2.0000     -10.282176      -279.7922
   7   2.0000     -10.282103      -279.7902
   8   2.0000     -10.260131      -279.1923
   9   2.0000     -10.259030      -279.1624
  10   2.0000     -10.255055      -279.0542
  11   2.0000     -10.252861      -278.9945
  12   2.0000     -10.252760      -278.9918
  13   2.0000      -1.133614       -30.8472
  14   2.0000      -1.030633       -28.0449
  15   2.0000      -0.933051       -25.3896
  16   2.0000      -0.899998       -24.4902
  17   2.0000      -0.884571       -24.0704
  18   2.0000      -0.843192       -22.9444
  19   2.0000      -0.801864       -21.8198
  20   2.0000      -0.801334       -21.8054
  21   2.0000      -0.784355       -21.3434
  22   2.0000      -0.761325       -20.7167
  23   2.0000      -0.693083       -18.8597
  24   2.0000      -0.676267       -18.4022
  25   2.0000      -0.642850       -17.4928
  26   2.0000      -0.617422       -16.8009
  27   2.0000      -0.582126       -15.8405
  28   2.0000      -0.555944       -15.1280
  29   2.0000      -0.552275       -15.0282
  30   2.0000      -0.551183       -14.9985
  31   2.0000      -0.537227       -14.6187
  32   2.0000      -0.534495       -14.5444
  33   2.0000      -0.523887       -14.2557
  34   2.0000      -0.511958       -13.9311
  35   2.0000      -0.509034       -13.8515
  36   2.0000      -0.507402       -13.8071
  37   2.0000      -0.493396       -13.4260
  38   2.0000      -0.486293       -13.2327
  39   2.0000      -0.483674       -13.1614
  40   2.0000      -0.471916       -12.8415
  41   2.0000      -0.464327       -12.6350
  42   2.0000      -0.459630       -12.5072
  43   2.0000      -0.449487       -12.2312
  44   2.0000      -0.437798       -11.9131
  45   2.0000      -0.437248       -11.8981
  46   2.0000      -0.428511       -11.6604
  47   2.0000      -0.354661        -9.6508
  48   2.0000      -0.297501        -8.0954
  49   2.0000      -0.294820        -8.0225
  50   0.0000       0.129062         3.5120
  51   0.0000       0.136149         3.7048
  52   0.0000       0.142364         3.8739
  53   0.0000       0.144901         3.9430
  54   0.0000       0.165599         4.5062

MULLIKEN ATOMIC CHARGES
-----------------------
   0 C :   -0.103161
   1 C :   -0.104099
   2 C :   -0.123031
   3 N :   -0.228144
   4 N :   -0.227173
   5 C :    0.080616
   6 C :    0.081473
   7 H :    0.018764
   8 H :    0.019333
   9 H :    0.046955
  10 H :    0.038212
  11 H :    0.046621
  12 H :    0.035515
  13 C :    0.013775
  14 C :    0.011896
  15 C :    0.013963
  16 C :    0.009400
  17 C :   -0.005454
  18 C :   -0.008236
  19 H :    0.024470
  20 H :    0.027813
  21 H :    0.019503
  22 H :    0.026372
  23 H :    0.019814
  24 H :    0.051007
  25 H :    0.040380
  26 H :    0.051249
  27 H :    0.041358
  28 H :    0.018822
  29 H :    0.025265
  30 H :    0.019202
  31 H :    0.008211
  32 H :    0.009309
Sum of atomic charges:    0.0000000

LOEWDIN ATOMIC CHARGES
----------------------
   0 C :   -0.047453
   1 C :   -0.048353
   2 C :   -0.249910
   3 N :    0.025757
   4 N :    0.025899
   5 C :   -0.059021
   6 C :   -0.058906
   7 H :    0.036127
   8 H :    0.036150
   9 H :    0.035896
  10 H :    0.034346
  11 H :    0.035754
  12 H :    0.033657
  13 C :   -0.058308
  14 C :   -0.054833
  15 C :   -0.058450
  16 C :   -0.055630
  17 C :    0.028956
  18 C :    0.028609
  19 H :    0.025817
  20 H :    0.027712
  21 H :    0.022455
  22 H :    0.026991
  23 H :    0.022890
  24 H :    0.033695
  25 H :    0.032540
  26 H :    0.033785
  27 H :    0.032603
  28 H :    0.023628
  29 H :    0.026245
  30 H :    0.023655
  31 H :    0.018808
  32 H :    0.018889

  Mayer bond orders larger than 0.100000
B(  0-C ,  1-C ) :   1.6616 B(  0-C ,  3-N ) :   1.1210 B(  0-C ,  5-C ) :   1.0902
B(  1-C ,  4-N ) :   1.1199 B(  1-C ,  6-C ) :   1.0895 B(  2-C ,  3-N ) :   1.2309
B(  2-C ,  4-N ) :   1.2337 B(  3-N , 17-C ) :   0.9160 B(  4-N , 18-C ) :   0.9177
B(  5-C ,  7-H ) :   0.9454 B(  5-C , 10-H ) :   0.9496 B(  5-C , 11-H ) :   0.9502
B(  6-C ,  8-H ) :   0.9456 B(  6-C ,  9-H ) :   0.9506 B(  6-C , 12-H ) :   0.9489
B( 13-C , 17-C ) :   1.0724 B( 13-C , 19-H ) :   0.9717 B( 13-C , 23-H ) :   0.9654
B( 13-C , 27-H ) :   0.9642 B( 14-C , 18-C ) :   1.0725 B( 14-C , 20-H ) :   0.9677
B( 14-C , 24-H ) :   0.9604 B( 14-C , 28-H ) :   0.9680 B( 15-C , 18-C ) :   1.0721
B( 15-C , 21-H ) :   0.9647 B( 15-C , 25-H ) :   0.9641 B( 15-C , 29-H ) :   0.9717
B( 16-C , 17-C ) :   1.0715 B( 16-C , 22-H ) :   0.9680 B( 16-C , 26-H ) :   0.9608
B( 16-C , 30-H ) :   0.9686 B( 17-C , 31-H ) :   0.9397 B( 18-C , 32-H ) :   0.9394

Dispersion correction           -0.005754017
FINAL SINGLE POINT ENERGY      -540.186119321247

DIPOLE MOMENT
-------------
                                X             Y             Z
Electronic contribution:     -0.66691      -0.45487      -1.63150
Nuclear contribution   :      0.36759       0.18050       0.64430
                        -----------------------------------------
Total Dipole Moment    :     -0.29932      -0.27437      -0.98719
                        -----------------------------------------
Magnitude (a.u.)       :      1.06744
Magnitude (Debye)      :      2.71321

Dispersion correction in the Hessian             ... Starting D4

VIBRATIONAL FREQUENCIES
-----------------------

Scaling factor for frequencies =  1.000000000  (already applied!)

   0:         0.00 cm**-1
   1:         0.00 cm**-1
   2:         0.00 cm**-1
   3:         0.00 cm**-1
   4:         0.00 cm**-1
   5:         0.00 cm**-1
   6:        22.35 cm**-1
   7:        46.05 cm**-1
   8:        85.18 cm**-1
   9:       111.83 cm**-1
  10:       148.62 cm**-1
  11:       176.58 cm**-1
  12:       210.80 cm**-1
  13:       212.49 cm**-1
  14:       224.00 cm**-1
  15:       228.35 cm**-1
  16:       234.01 cm**-1
  17:       261.23 cm**-1
  18:       269.67 cm**-1
  19:       278.78 cm**-1
  20:       286.94 cm**-1
  21:       324.14 cm**-1
  22:       328.62 cm**-1
  23:       389.86 cm**-1
  24:       427.44 cm**-1
  25:       472.75 cm**-1
  26:       491.84 cm**-1
  27:       551.72 cm**-1
  28:       617.87 cm**-1
  29:       637.72 cm**-1
  30:       674.13 cm**-1
  31:       695.88 cm**-1
  32:       750.02 cm**-1
  33:       816.38 cm**-1
  34:       913.20 cm**-1
  35:       929.99 cm**-1
  36:       933.14 cm**-1
  37:       936.67 cm**-1
  38:       961.21 cm**-1
  39:       962.77 cm**-1
  40:       970.33 cm**-1
  41:      1048.33 cm**-1
  42:      1067.89 cm**-1
  43:      1072.44 cm**-1
  44:      1096.35 cm**-1
  45:      1146.90 cm**-1
  46:      1148.47 cm**-1
  47:      1173.51 cm**-1
  48:      1174.76 cm**-1
  49:      1194.28 cm**-1
  50:      1222.52 cm**-1
  51:      1229.79 cm**-1
  52:      1347.84 cm**-1
  53:      1349.38 cm**-1
  54:      1352.00 cm**-1
  55:      1369.95 cm**-1
  56:      1399.89 cm**-1
  57:      1402.58 cm**-1
  58:      1405.97 cm**-1
  59:      1406.77 cm**-1
  60:      1409.05 cm**-1
  61:      1419.63 cm**-1
  62:      1445.12 cm**-1
  63:      1446.13 cm**-1
  64:      1452.32 cm**-1
  65:      1453.85 cm**-1
  66:      1457.95 cm**-1
  67:      1459.01 cm**-1
  68:      1459.57 cm**-1
  69:      1461.65 cm**-1
  70:      1465.21 cm**-1
  71:      1466.00 cm**-1
  72:      1474.31 cm**-1
  73:      1475.19 cm**-1
  74:      1478.52 cm**-1
  75:      1486.29 cm**-1
  76:      1494.43 cm**-1
  77:      1499.18 cm**-1
  78:      1761.80 cm**-1
  79:      3060.36 cm**-1
  80:      3062.10 cm**-1
  81:      3062.30 cm**-1
  82:      3063.76 cm**-1
  83:      3073.99 cm**-1
  84:      3074.87 cm**-1
  85:      3099.65 cm**-1
  86:      3103.23 cm**-1
  87:      3142.19 cm**-1
  88:      3143.79 cm**-1
  89:      3162.35 cm**-1
  90:      3164.59 cm**-1
  91:      3172.31 cm**-1
  92:      3172.41 cm**-1
  93:      3174.63 cm**-1
  94:      3175.16 cm**-1
  95:      3179.52 cm**-1
  96:      3182.14 cm**-1
  97:      3193.27 cm**-1
  98:      3194.94 cm**-1

IR SPECTRUM
-----------

 Mode   freq       eps      Int      T**2         TX        TY        TZ
       cm**-1   L/(mol*cm) km/mol    a.u.
----------------------------------------------------------------------------
  6:     22.35   0.000041    0.21  0.000567  (-0.022695  0.003175  0.006444)
  7:     46.05   0.000108    0.55  0.000732  (-0.025882  0.005321  0.005834)
  8:     85.18   0.000659    3.33  0.002413  ( 0.044913  0.011090 -0.016509)
  9:    111.83   0.000004    0.02  0.000012  ( 0.002531  0.000718 -0.002149)
 10:    148.62   0.000101    0.51  0.000212  ( 0.004069  0.003572  0.013514)
 11:    176.58   0.000054    0.27  0.000095  ( 0.006971  0.005657 -0.003755)
 12:    210.80   0.000040    0.20  0.000059  ( 0.002553  0.006810 -0.002404)
 13:    212.49   0.000026    0.13  0.000038  (-0.001521 -0.005972  0.000703)
 14:    224.00   0.000025    0.13  0.000034  (-0.002310  0.005396  0.000100)
 15:    228.35   0.000164    0.83  0.000224  (-0.001126  0.013736 -0.005835)
 16:    234.01   0.000522    2.64  0.000696  ( 0.000440 -0.025410  0.007055)
 17:    261.23   0.000028    0.14  0.000033  (-0.002815  0.004940  0.001083)
 18:    269.67   0.000012    0.06  0.000014  (-0.002369  0.002219 -0.001757)
 19:    278.78   0.000061    0.31  0.000068  ( 0.008003 -0.001734 -0.001169)
 20:    286.94   0.000022    0.11  0.000024  (-0.000726 -0.002461 -0.004214)
 21:    324.14   0.000389    1.96  0.000374  ( 0.000536  0.019307 -0.001075)
 22:    328.62   0.000166    0.84  0.000157  ( 0.004557 -0.005324  0.010398)
 23:    389.86   0.001544    7.80  0.001236  ( 0.032342  0.006630 -0.012066)
 24:    427.44   0.000734    3.71  0.000536  (-0.021035  0.008647  0.004311)
 25:    472.75   0.000148    0.75  0.000098  ( 0.002645  0.003107  0.009015)
 26:    491.84   0.000006    0.03  0.000004  ( 0.000675  0.000115  0.001912)
 27:    551.72   0.000379    1.91  0.000214  (-0.001859  0.014171 -0.003135)
 28:    617.87   0.000595    3.01  0.000300  ( 0.005016  0.004015  0.016097)
 29:    637.72   0.000111    0.56  0.000054  (-0.004546  0.005791  0.000203)
 30:    674.13   0.000140    0.71  0.000065  ( 0.004543 -0.006609  0.000830)
 31:    695.88   0.000002    0.01  0.000001  ( 0.000397 -0.000095  0.000803)
 32:    750.02   0.001469    7.42  0.000611  ( 0.006898  0.006367  0.022871)
 33:    816.38   0.000479    2.42  0.000183  (-0.005685  0.012164 -0.001685)
 34:    913.20   0.000034    0.17  0.000012  (-0.000362 -0.001523 -0.003012)
 35:    929.99   0.000424    2.14  0.000142  ( 0.009445 -0.007275 -0.000265)
 36:    933.14   0.000243    1.23  0.000081  ( 0.002584  0.008225  0.002645)
 37:    936.67   0.000486    2.45  0.000162  (-0.003763 -0.009755  0.007243)
 38:    961.21   0.000008    0.04  0.000002  ( 0.001551  0.000227  0.000009)
 39:    962.77   0.000073    0.37  0.000024  (-0.004658  0.000656  0.001235)
 40:    970.33   0.000471    2.38  0.000151  ( 0.003258  0.003153  0.011440)
 41:   1048.33   0.000244    1.23  0.000072  ( 0.007749  0.002516 -0.002474)
 42:   1067.89   0.000049    0.25  0.000014  (-0.000299  0.003151  0.002098)
 43:   1072.44   0.001083    5.47  0.000315  (-0.004249  0.016723 -0.004166)
 44:   1096.35   0.000952    4.81  0.000271  (-0.004421 -0.005232 -0.014971)
 45:   1146.90   0.008778   44.36  0.002389  (-0.008486  0.047084 -0.009983)
 46:   1148.47   0.000802    4.05  0.000218  ( 0.004284  0.003430  0.013705)
 47:   1173.51   0.000777    3.92  0.000207  (-0.012855 -0.004180  0.004879)
 48:   1174.76   0.000113    0.57  0.000030  (-0.004496 -0.002211  0.002200)
 49:   1194.28   0.000321    1.62  0.000084  (-0.007392  0.005279  0.001136)
 50:   1222.52   0.000059    0.30  0.000015  (-0.001153 -0.000774 -0.003624)
 51:   1229.79   0.000556    2.81  0.000141  ( 0.001244 -0.011594  0.002268)
 52:   1347.84   0.000227    1.15  0.000053  ( 0.000183 -0.004275 -0.005862)
 53:   1349.38   0.000456    2.30  0.000105  (-0.004731 -0.000368 -0.009107)
 54:   1352.00   0.000231    1.17  0.000053  (-0.000696 -0.003610 -0.006315)
 55:   1369.95   0.003370   17.03  0.000768  (-0.008260  0.025753 -0.006012)
 56:   1399.89   0.000274    1.39  0.000061  (-0.005752 -0.002660  0.004581)
 57:   1402.58   0.001388    7.01  0.000309  ( 0.003638 -0.006976 -0.015711)
 58:   1405.97   0.004073   20.58  0.000904  (-0.030062 -0.000427 -0.000203)
 59:   1406.77   0.003166   16.00  0.000702  (-0.021815  0.004941  0.014210)
 60:   1409.05   0.001063    5.37  0.000235  ( 0.010438  0.001214  0.011182)
 61:   1419.63   0.014941   75.51  0.003284  (-0.017416  0.053504 -0.010882)
 62:   1445.12   0.007815   39.49  0.001688  (-0.001497  0.038710  0.013668)
 63:   1446.13   0.007870   39.77  0.001698  (-0.015114  0.023414 -0.030357)
 64:   1452.32   0.000312    1.58  0.000067  (-0.007389  0.003445 -0.000746)
 65:   1453.85   0.000467    2.36  0.000100  ( 0.008618 -0.004756 -0.001860)
 66:   1457.95   0.000567    2.86  0.000121  (-0.006434  0.002264  0.008646)
 67:   1459.01   0.009440   47.70  0.002019  (-0.014873 -0.012548 -0.040502)
 68:   1459.57   0.001492    7.54  0.000319  ( 0.014676  0.008003  0.006287)
 69:   1461.65   0.002467   12.47  0.000527  (-0.016286  0.007310  0.014423)
 70:   1465.21   0.000684    3.46  0.000146  ( 0.010297 -0.004065 -0.004806)
 71:   1466.00   0.000610    3.08  0.000130  ( 0.009079 -0.001470 -0.006731)
 72:   1474.31   0.000381    1.92  0.000081  ( 0.001254 -0.008817  0.001145)
 73:   1475.19   0.000708    3.58  0.000150  ( 0.000818  0.011955 -0.002492)
 74:   1478.52   0.000478    2.41  0.000101  (-0.002864 -0.007933 -0.005449)
 75:   1486.29   0.005941   30.02  0.001247  (-0.005582  0.033613 -0.009291)
 76:   1494.43   0.000424    2.14  0.000089  (-0.008592  0.003507 -0.001554)
 77:   1499.18   0.001191    6.02  0.000248  ( 0.004184  0.004842  0.014387)
 78:   1761.80   0.000073    0.37  0.000013  ( 0.000902  0.000638  0.003415)
 79:   3060.36   0.008858   44.76  0.000903  (-0.008885  0.028701 -0.000709)
 80:   3062.10   0.003456   17.47  0.000352  (-0.003758  0.000484 -0.018382)
 81:   3062.30   0.003005   15.19  0.000306  (-0.017338  0.002366 -0.000208)
 82:   3063.76   0.002980   15.06  0.000304  (-0.016080  0.003478  0.005731)
 83:   3073.99   0.003831   19.36  0.000389  ( 0.009404  0.016978  0.003499)
 84:   3074.87   0.003439   17.38  0.000349  (-0.001577 -0.008741  0.016434)
 85:   3099.65   0.004584   23.17  0.000462  (-0.007335 -0.019646 -0.004664)
 86:   3103.23   0.004161   21.03  0.000418  ( 0.001528 -0.010889  0.017248)
 87:   3142.19   0.001897    9.59  0.000188  ( 0.013020  0.001088 -0.004204)
 88:   3143.79   0.002043   10.33  0.000203  ( 0.013484  0.001634 -0.004284)
 89:   3162.35   0.004026   20.35  0.000397  (-0.001181  0.006131 -0.018930)
 90:   3164.59   0.003766   19.03  0.000371  ( 0.009106  0.014210  0.009301)
 91:   3172.31   0.002790   14.10  0.000274  (-0.000402 -0.013828 -0.009113)
 92:   3172.41   0.001791    9.05  0.000176  ( 0.009573 -0.006776 -0.006212)
 93:   3174.63   0.007682   38.82  0.000755  (-0.015232  0.022009 -0.006227)
 94:   3175.16   0.002233   11.29  0.000220  (-0.006098  0.013038 -0.003508)
 95:   3179.52   0.002683   13.56  0.000263  (-0.003444  0.015766 -0.001707)
 96:   3182.14   0.002683   13.56  0.000263  ( 0.004709  0.002898  0.015248)
 97:   3193.27   0.001786    9.03  0.000175  ( 0.004099  0.009858 -0.007782)
 98:   3194.94   0.001363    6.89  0.000133  (-0.006027 -0.009827  0.000452)

--------------------------
THERMOCHEMISTRY AT 298.15K
--------------------------

Temperature         ... 298.15 K
Pressure            ... 1.00 atm
Total Mass          ... 180.29 AMU

Throughout the following assumptions are being made:
  (1) The electronic state is orbitally nondegenerate
  (2) There are no thermally accessible electronically excited states
  (3) Hindered rotations indicated by low frequency modes are not
      treated as such but are treated as vibrations and this may
      cause some error
  (4) All equations used are the standard statistical mechanics
      equations for an ideal gas
  (5) All vibrations are strictly harmonic

freq.      22.35  E(vib)   ...       0.56
freq.      46.05  E(vib)   ...       0.53
freq.      85.18  E(vib)   ...       0.48
freq.     111.83  E(vib)   ...       0.45
freq.     148.62  E(vib)   ...       0.41
freq.     176.58  E(vib)   ...       0.38
freq.     210.80  E(vib)   ...       0.34
freq.     212.49  E(vib)   ...       0.34
freq.     224.00  E(vib)   ...       0.33
freq.     228.35  E(vib)   ...       0.32
freq.     234.01  E(vib)   ...       0.32
freq.     261.23  E(vib)   ...       0.30
freq.     269.67  E(vib)   ...       0.29
freq.     278.78  E(vib)   ...       0.28
freq.     286.94  E(vib)   ...       0.27
freq.     324.14  E(vib)   ...       0.25
freq.     328.62  E(vib)   ...       0.24
freq.     389.86  E(vib)   ...       0.20
freq.     427.44  E(vib)   ...       0.18
freq.     472.75  E(vib)   ...       0.15
freq.     491.84  E(vib)   ...       0.14
freq.     551.72  E(vib)   ...       0.12
freq.     617.87  E(vib)   ...       0.09
freq.     637.72  E(vib)   ...       0.09
freq.     674.13  E(vib)   ...       0.08
freq.     695.88  E(vib)   ...       0.07
freq.     750.02  E(vib)   ...       0.06
freq.     816.38  E(vib)   ...       0.05
freq.     913.20  E(vib)   ...       0.03
freq.     929.99  E(vib)   ...       0.03
freq.     933.14  E(vib)   ...       0.03
freq.     936.67  E(vib)   ...       0.03
freq.     961.21  E(vib)   ...       0.03
freq.     962.77  E(vib)   ...       0.03
freq.     970.33  E(vib)   ...       0.03
freq.    1048.33  E(vib)   ...       0.02
freq.    1067.89  E(vib)   ...       0.02
freq.    1072.44  E(vib)   ...       0.02
freq.    1096.35  E(vib)   ...       0.02
freq.    1146.90  E(vib)   ...       0.01
freq.    1148.47  E(vib)   ...       0.01
freq.    1173.51  E(vib)   ...       0.01
freq.    1174.76  E(vib)   ...       0.01
freq.    1194.28  E(vib)   ...       0.01
freq.    1222.52  E(vib)   ...       0.01
freq.    1229.79  E(vib)   ...       0.01
freq.    1347.84  E(vib)   ...       0.01
freq.    1349.38  E(vib)   ...       0.01
freq.    1352.00  E(vib)   ...       0.01
freq.    1369.95  E(vib)   ...       0.01
freq.    1399.89  E(vib)   ...       0.00
freq.    1402.58  E(vib)   ...       0.00
freq.    1405.97  E(vib)   ...       0.00
freq.    1406.77  E(vib)   ...       0.00
freq.    1409.05  E(vib)   ...       0.00
freq.    1419.63  E(vib)   ...       0.00
freq.    1445.12  E(vib)   ...       0.00
freq.    1446.13  E(vib)   ...       0.00
freq.    1452.32  E(vib)   ...       0.00
freq.    1453.85  E(vib)   ...       0.00
freq.    1457.95  E(vib)   ...       0.00
freq.    1459.01  E(vib)   ...       0.00
freq.    1459.57  E(vib)   ...       0.00
freq.    1461.65  E(vib)   ...       0.00
freq.    1465.21  E(vib)   ...       0.00
freq.    1466.00  E(vib)   ...       0.00
freq.    1474.31  E(vib)   ...       0.00
freq.    1475.19  E(vib)   ...       0.00
freq.    1478.52  E(vib)   ...       0.00
freq.    1486.29  E(vib)   ...       0.00
freq.    1494.43  E(vib)   ...       0.00
freq.    1499.18  E(vib)   ...       0.00
freq.    1761.80  E(vib)   ...       0.00
freq.    3060.36  E(vib)   ...       0.00
freq.    3062.10  E(vib)   ...       0.00
freq.    3062.30  E(vib)   ...       0.00
freq.    3063.76  E(vib)   ...       0.00
freq.    3073.99  E(vib)   ...       0.00
freq.    3074.87  E(vib)   ...       0.00
freq.    3099.65  E(vib)   ...       0.00
freq.    3103.23  E(vib)   ...       0.00
freq.    3142.19  E(vib)   ...       0.00
freq.    3143.79  E(vib)   ...       0.00
freq.    3162.35  E(vib)   ...       0.00
freq.    3164.59  E(vib)   ...       0.00
freq.    3172.31  E(vib)   ...       0.00
freq.    3172.41  E(vib)   ...       0.00
freq.    3174.63  E(vib)   ...       0.00
freq.    3175.16  E(vib)   ...       0.00
freq.    3179.52  E(vib)   ...       0.00
freq.    3182.14  E(vib)   ...       0.00
freq.    3193.27  E(vib)   ...       0.00
freq.    3194.94  E(vib)   ...       0.00

------------
INNER ENERGY
------------

The inner energy is: U= E(el) + E(ZPE) + E(vib) + E(rot) + E(trans)
    E(el)   - is the total energy from the electronic structure calculation
              = E(kin-el) + E(nuc-el) + E(el-el) + E(nuc-nuc)
    E(ZPE)  - the the zero temperature vibrational energy from the frequency calculation
    E(vib)  - the the finite temperature correction to E(ZPE) due to population
              of excited vibrational states
    E(rot)  - is the rotational thermal energy
    E(trans)- is the translational thermal energy

Summary of contributions to the inner energy U:
Electronic energy                ...   -540.18611932 Eh
Zero point energy                ...      0.29824623 Eh     187.15 kcal/mol
Thermal vibrational correction   ...      0.01237781 Eh       7.77 kcal/mol
Thermal rotational correction    ...      0.00141627 Eh       0.89 kcal/mol
Thermal translational correction ...      0.00141627 Eh       0.89 kcal/mol
-----------------------------------------------------------------------
Total thermal energy                   -539.87266273 Eh

Summary of corrections to the electronic energy:
(perhaps to be used in another calculation)
Total thermal correction                  0.01521036 Eh       9.54 kcal/mol
Non-thermal (ZPE) correction              0.29824623 Eh     187.15 kcal/mol
-----------------------------------------------------------------------
Total correction                          0.31345659 Eh     196.70 kcal/mol

--------
ENTHALPY
--------

The enthalpy is H = U + kB*T
                kB is Boltzmann's constant
Total free energy                 ...   -539.87266273 Eh
Thermal Enthalpy correction       ...      0.00094421 Eh       0.59 kcal/mol
-----------------------------------------------------------------------
Total Enthalpy                    ...   -539.87171852 Eh

Note: Only C1 symmetry has been detected, increase convergence thresholds
      if your molecule has a higher symmetry. Symmetry factor of 1.0 is
      used for the rotational entropy correction.

Note: Rotational entropy computed according to Herzberg
Infrared and Raman Spectra, Chapter V,1, Van Nostrand Reinhold, 1945

Rotational constants in cm-1:     0.036252     0.019461     0.014905

                             ****ORCA TERMINATED NORMALLY****
TOTAL RUN TIME: 0 days 0 hours 29 minutes 5 seconds 365 msec
