                         Program Version 5.0.4 -  RELEASE  -
|  1> # ORCAForces - ../2023_04/pKa_prediction/extra_carbenes/Gas/9_Gas.inp
|  2> # Basic Mode
|  3> #
|  4> ! Opt FREQ wB97X D4 Def2-SVP SlowConv TightSCF DEFGRID2 Def2/J RIJCOSX
|  5>
|  6> %maxcore 4500
|  7>
|  8> %PAL NPROCS 4 END
|  9>
| 10> %geom
| 11> Maxiter 150
| 12> END
| 13>
| 14> * xyzfile 0 1 9.xyz
| 15>
| 16>                          ****END OF INPUT****
 Total Charge           Charge          ....    0
 Multiplicity           Mult            ....    1
 Number of Electrons    NEL             ....   54
Dispersion correction           -0.001936171
FINAL SINGLE POINT ENERGY      -305.704061291420
Dispersion correction            ... Starting D4
Dispersion correction           -0.001939431
FINAL SINGLE POINT ENERGY      -305.704800514263
Dispersion correction            ... Starting D4
Dispersion correction           -0.001940095
FINAL SINGLE POINT ENERGY      -305.704847509322
Dispersion correction            ... Starting D4
Dispersion correction           -0.001940148
FINAL SINGLE POINT ENERGY      -305.704858757070
Dispersion correction            ... Starting D4
Dispersion correction           -0.001940008
FINAL SINGLE POINT ENERGY      -305.704862153660
Dispersion correction            ... Starting D4
                    ***********************HURRAY********************

CARTESIAN COORDINATES (ANGSTROEM)
---------------------------------
  C      0.008559    0.765525   -1.219467
  C     -0.008560   -0.765526   -1.219467
  N     -0.124108    1.064075    0.204931
  N      0.124105   -1.064075    0.204931
  C     -0.000001    0.000000    1.019579
  H     -0.815223    1.208742   -1.803664
  H      0.815223   -1.208742   -1.803662
  C     -0.187406    2.426693    0.657406
  C      0.187407   -2.426693    0.657406
  H     -1.056019    2.951405    0.222325
  H      1.056021   -2.951402    0.222325
  H     -0.283624    2.423061    1.750125
  H      0.283624   -2.423061    1.750125
  H      0.722754    2.991422    0.383548
  H     -0.722752   -2.991425    0.383548
  H      0.955452    1.176871   -1.616902
  H     -0.955452   -1.176871   -1.616904

 Multiplicity           Mult            ....    1
 Number of Electrons    NEL             ....   54
 Basis Dimension        Dim             ....  148

ORBITAL ENERGIES
----------------

  NO   OCC          E(Eh)            E(eV)
   0   2.0000     -14.415985      -392.2789
   1   2.0000     -14.415977      -392.2787
   2   2.0000     -10.308060      -280.4966
   3   2.0000     -10.308037      -280.4960
   4   2.0000     -10.294204      -280.1195
   5   2.0000     -10.294170      -280.1186
   6   2.0000     -10.270647      -279.4785
   7   2.0000      -1.114652       -30.3312
   8   2.0000      -1.014705       -27.6115
   9   2.0000      -0.887014       -24.1369
  10   2.0000      -0.844274       -22.9739
  11   2.0000      -0.791523       -21.5384
  12   2.0000      -0.725266       -19.7355
  13   2.0000      -0.661608       -18.0033
  14   2.0000      -0.615279       -16.7426
  15   2.0000      -0.611938       -16.6517
  16   2.0000      -0.568381       -15.4664
  17   2.0000      -0.550395       -14.9770
  18   2.0000      -0.525655       -14.3038
  19   2.0000      -0.517320       -14.0770
  20   2.0000      -0.517200       -14.0737
  21   2.0000      -0.475107       -12.9283
  22   2.0000      -0.473257       -12.8780
  23   2.0000      -0.466539       -12.6952
  24   2.0000      -0.417027       -11.3479
  25   2.0000      -0.305244        -8.3061
  26   2.0000      -0.299375        -8.1464
  27   0.0000       0.131905         3.5893
  28   0.0000       0.138216         3.7610
  29   0.0000       0.158498         4.3129
  30   0.0000       0.193994         5.2788
  31   0.0000       0.197926         5.3858

MULLIKEN ATOMIC CHARGES
-----------------------
   0 C :    0.112627
   1 C :    0.112629
   2 N :   -0.352045
   3 N :   -0.352045
   4 C :   -0.062859
   5 H :    0.029885
   6 H :    0.029884
   7 C :    0.117104
   8 C :    0.117104
   9 H :    0.021398
  10 H :    0.021398
  11 H :    0.053636
  12 H :    0.053636
  13 H :    0.020321
  14 H :    0.020321
  15 H :    0.028503
  16 H :    0.028503
Sum of atomic charges:    0.0000000

LOEWDIN ATOMIC CHARGES
----------------------
   0 C :    0.030755
   1 C :    0.030755
   2 N :   -0.062494
   3 N :   -0.062494
   4 C :   -0.197976
   5 H :    0.021420
   6 H :    0.021420
   7 C :    0.023486
   8 C :    0.023486
   9 H :    0.015845
  10 H :    0.015845
  11 H :    0.036764
  12 H :    0.036764
  13 H :    0.014708
  14 H :    0.014708
  15 H :    0.018504
  16 H :    0.018504

  Mayer bond orders larger than 0.100000
B(  0-C ,  1-C ) :   1.0982 B(  0-C ,  2-N ) :   0.9507 B(  0-C ,  5-H ) :   0.9570
B(  0-C , 15-H ) :   0.9480 B(  1-C ,  3-N ) :   0.9507 B(  1-C ,  6-H ) :   0.9570
B(  1-C , 16-H ) :   0.9480 B(  2-N ,  4-C ) :   1.2414 B(  2-N ,  7-C ) :   0.9845
B(  3-N ,  4-C ) :   1.2414 B(  3-N ,  8-C ) :   0.9845 B(  7-C ,  9-H ) :   0.9759
B(  7-C , 11-H ) :   0.9735 B(  7-C , 13-H ) :   0.9739 B(  8-C , 10-H ) :   0.9759
B(  8-C , 12-H ) :   0.9735 B(  8-C , 14-H ) :   0.9739

Dispersion correction           -0.001939902
FINAL SINGLE POINT ENERGY      -305.704864775453

DIPOLE MOMENT
-------------
                                X             Y             Z
Electronic contribution:     -0.00001       0.00000       1.05641
Nuclear contribution   :      0.00001      -0.00000      -2.21910
                        -----------------------------------------
Total Dipole Moment    :      0.00000      -0.00000      -1.16269
                        -----------------------------------------
Magnitude (a.u.)       :      1.16269
Magnitude (Debye)      :      2.95532

Dispersion correction in the Hessian             ... Starting D4

VIBRATIONAL FREQUENCIES
-----------------------

Scaling factor for frequencies =  1.000000000  (already applied!)

   0:         0.00 cm**-1
   1:         0.00 cm**-1
   2:         0.00 cm**-1
   3:         0.00 cm**-1
   4:         0.00 cm**-1
   5:         0.00 cm**-1
   6:       113.89 cm**-1
   7:       126.61 cm**-1
   8:       171.09 cm**-1
   9:       207.89 cm**-1
  10:       239.54 cm**-1
  11:       293.93 cm**-1
  12:       424.87 cm**-1
  13:       472.86 cm**-1
  14:       631.57 cm**-1
  15:       658.98 cm**-1
  16:       854.61 cm**-1
  17:       943.25 cm**-1
  18:       969.00 cm**-1
  19:      1024.21 cm**-1
  20:      1094.17 cm**-1
  21:      1105.69 cm**-1
  22:      1107.36 cm**-1
  23:      1147.00 cm**-1
  24:      1167.94 cm**-1
  25:      1202.57 cm**-1
  26:      1237.09 cm**-1
  27:      1271.89 cm**-1
  28:      1325.35 cm**-1
  29:      1333.49 cm**-1
  30:      1363.17 cm**-1
  31:      1429.59 cm**-1
  32:      1436.19 cm**-1
  33:      1465.94 cm**-1
  34:      1466.04 cm**-1
  35:      1477.00 cm**-1
  36:      1490.40 cm**-1
  37:      1490.42 cm**-1
  38:      1514.40 cm**-1
  39:      1542.45 cm**-1
  40:      1567.57 cm**-1
  41:      3031.32 cm**-1
  42:      3033.70 cm**-1
  43:      3040.79 cm**-1
  44:      3048.52 cm**-1
  45:      3102.65 cm**-1
  46:      3107.33 cm**-1
  47:      3108.95 cm**-1
  48:      3116.18 cm**-1
  49:      3204.07 cm**-1
  50:      3204.10 cm**-1

IR SPECTRUM
-----------

 Mode   freq       eps      Int      T**2         TX        TY        TZ
       cm**-1   L/(mol*cm) km/mol    a.u.
----------------------------------------------------------------------------
  6:    113.89   0.000004    0.02  0.000010  ( 0.000001 -0.000000  0.003126)
  7:    126.61   0.001244    6.29  0.003067  ( 0.054382 -0.010452  0.000000)
  8:    171.09   0.000001    0.00  0.000001  ( 0.000000 -0.000000 -0.001024)
  9:    207.89   0.001547    7.82  0.002322  ( 0.047894 -0.005270 -0.000000)
 10:    239.54   0.000018    0.09  0.000023  ( 0.000000 -0.000000  0.004836)
 11:    293.93   0.000149    0.75  0.000158  (-0.000000  0.000000 -0.012562)
 12:    424.87   0.001254    6.34  0.000921  ( 0.005072 -0.029926 -0.000000)
 13:    472.86   0.000563    2.84  0.000371  (-0.007156 -0.017895  0.000000)
 14:    631.57   0.000220    1.11  0.000109  (-0.000000 -0.000000 -0.010426)
 15:    658.98   0.005625   28.43  0.002664  ( 0.002058 -0.051571  0.000000)
 16:    854.61   0.000199    1.00  0.000073  (-0.002328 -0.008191 -0.000000)
 17:    943.25   0.002071   10.47  0.000685  (-0.000000  0.000000  0.026175)
 18:    969.00   0.000082    0.41  0.000026  ( 0.004043  0.003154 -0.000000)
 19:   1024.21   0.000117    0.59  0.000036  ( 0.000000 -0.000000 -0.005981)
 20:   1094.17   0.000082    0.41  0.000023  ( 0.000000 -0.000000  0.004821)
 21:   1105.69   0.004935   24.94  0.001393  (-0.004803  0.037012  0.000000)
 22:   1107.36   0.000007    0.03  0.000002  ( 0.000000 -0.000001  0.001394)
 23:   1147.00   0.000304    1.54  0.000083  (-0.000690  0.009065 -0.000000)
 24:   1167.94   0.000003    0.02  0.000001  (-0.000000  0.000000 -0.000937)
 25:   1202.57   0.001699    8.58  0.000441  ( 0.020942  0.001498 -0.000000)
 26:   1237.09   0.000193    0.97  0.000049  (-0.000000  0.000000  0.006970)
 27:   1271.89   0.009271   46.85  0.002275  (-0.008024  0.047014  0.000000)
 28:   1325.35   0.009311   47.06  0.002192  ( 0.000308 -0.046823  0.000000)
 29:   1333.49   0.000012    0.06  0.000003  (-0.000000  0.000000  0.001685)
 30:   1363.17   0.001731    8.75  0.000396  ( 0.000000  0.000000  0.019904)
 31:   1429.59   0.005103   25.79  0.001114  (-0.002645 -0.033272  0.000000)
 32:   1436.19   0.000469    2.37  0.000102  ( 0.000000  0.000001  0.010094)
 33:   1465.94   0.000020    0.10  0.000004  ( 0.000006 -0.000004  0.002056)
 34:   1466.04   0.006166   31.16  0.001312  (-0.030265  0.019912  0.000001)
 35:   1477.00   0.021096  106.61  0.004457  ( 0.000418  0.066761  0.000000)
 36:   1490.40   0.003453   17.45  0.000723  ( 0.000003  0.000016  0.026887)
 37:   1490.42   0.000100    0.50  0.000021  (-0.000825 -0.004492  0.000097)
 38:   1514.40   0.000025    0.13  0.000005  ( 0.000000  0.000000 -0.002283)
 39:   1542.45   0.000705    3.56  0.000143  ( 0.000000  0.000000 -0.011939)
 40:   1567.57   0.041572  210.09  0.008276  (-0.002207  0.090945  0.000000)
 41:   3031.32   0.031758  160.49  0.003269  (-0.003093 -0.057095  0.000000)
 42:   3033.70   0.000211    1.07  0.000022  (-0.000000 -0.000003 -0.004660)
 43:   3040.79   0.011110   56.15  0.001140  ( 0.015788  0.029849  0.000000)
 44:   3048.52   0.008046   40.66  0.000824  ( 0.000000  0.000000 -0.028699)
 45:   3102.65   0.002105   10.64  0.000212  (-0.000002  0.000000  0.014551)
 46:   3107.33   0.020780  105.02  0.002087  ( 0.045455 -0.004554  0.000001)
 47:   3108.95   0.000098    0.50  0.000010  (-0.000005  0.000001  0.003140)
 48:   3116.18   0.003646   18.43  0.000365  ( 0.018584 -0.004448  0.000000)
 49:   3204.07   0.000127    0.64  0.000012  (-0.000600 -0.003460  0.000032)
 50:   3204.10   0.001171    5.92  0.000114  ( 0.000002  0.000010  0.010682)

--------------------------
THERMOCHEMISTRY AT 298.15K
--------------------------

Temperature         ... 298.15 K
Pressure            ... 1.00 atm
Total Mass          ... 98.15 AMU

Throughout the following assumptions are being made:
  (1) The electronic state is orbitally nondegenerate
  (2) There are no thermally accessible electronically excited states
  (3) Hindered rotations indicated by low frequency modes are not
      treated as such but are treated as vibrations and this may
      cause some error
  (4) All equations used are the standard statistical mechanics
      equations for an ideal gas
  (5) All vibrations are strictly harmonic

freq.     113.89  E(vib)   ...       0.44
freq.     126.61  E(vib)   ...       0.43
freq.     171.09  E(vib)   ...       0.38
freq.     207.89  E(vib)   ...       0.34
freq.     239.54  E(vib)   ...       0.31
freq.     293.93  E(vib)   ...       0.27
freq.     424.87  E(vib)   ...       0.18
freq.     472.86  E(vib)   ...       0.15
freq.     631.57  E(vib)   ...       0.09
freq.     658.98  E(vib)   ...       0.08
freq.     854.61  E(vib)   ...       0.04
freq.     943.25  E(vib)   ...       0.03
freq.     969.00  E(vib)   ...       0.03
freq.    1024.21  E(vib)   ...       0.02
freq.    1094.17  E(vib)   ...       0.02
freq.    1105.69  E(vib)   ...       0.02
freq.    1107.36  E(vib)   ...       0.02
freq.    1147.00  E(vib)   ...       0.01
freq.    1167.94  E(vib)   ...       0.01
freq.    1202.57  E(vib)   ...       0.01
freq.    1237.09  E(vib)   ...       0.01
freq.    1271.89  E(vib)   ...       0.01
freq.    1325.35  E(vib)   ...       0.01
freq.    1333.49  E(vib)   ...       0.01
freq.    1363.17  E(vib)   ...       0.01
freq.    1429.59  E(vib)   ...       0.00
freq.    1436.19  E(vib)   ...       0.00
freq.    1465.94  E(vib)   ...       0.00
freq.    1466.04  E(vib)   ...       0.00
freq.    1477.00  E(vib)   ...       0.00
freq.    1490.40  E(vib)   ...       0.00
freq.    1490.42  E(vib)   ...       0.00
freq.    1514.40  E(vib)   ...       0.00
freq.    1542.45  E(vib)   ...       0.00
freq.    1567.57  E(vib)   ...       0.00
freq.    3031.32  E(vib)   ...       0.00
freq.    3033.70  E(vib)   ...       0.00
freq.    3040.79  E(vib)   ...       0.00
freq.    3048.52  E(vib)   ...       0.00
freq.    3102.65  E(vib)   ...       0.00
freq.    3107.33  E(vib)   ...       0.00
freq.    3108.95  E(vib)   ...       0.00
freq.    3116.18  E(vib)   ...       0.00
freq.    3204.07  E(vib)   ...       0.00
freq.    3204.10  E(vib)   ...       0.00

------------
INNER ENERGY
------------

The inner energy is: U= E(el) + E(ZPE) + E(vib) + E(rot) + E(trans)
    E(el)   - is the total energy from the electronic structure calculation
              = E(kin-el) + E(nuc-el) + E(el-el) + E(nuc-nuc)
    E(ZPE)  - the the zero temperature vibrational energy from the frequency calculation
    E(vib)  - the the finite temperature correction to E(ZPE) due to population
              of excited vibrational states
    E(rot)  - is the rotational thermal energy
    E(trans)- is the translational thermal energy

Summary of contributions to the inner energy U:
Electronic energy                ...   -305.70486478 Eh
Zero point energy                ...      0.15119211 Eh      94.87 kcal/mol
Thermal vibrational correction   ...      0.00470646 Eh       2.95 kcal/mol
Thermal rotational correction    ...      0.00141627 Eh       0.89 kcal/mol
Thermal translational correction ...      0.00141627 Eh       0.89 kcal/mol
-----------------------------------------------------------------------
Total thermal energy                   -305.54613367 Eh

Summary of corrections to the electronic energy:
(perhaps to be used in another calculation)
Total thermal correction                  0.00753900 Eh       4.73 kcal/mol
Non-thermal (ZPE) correction              0.15119211 Eh      94.87 kcal/mol
-----------------------------------------------------------------------
Total correction                          0.15873111 Eh      99.61 kcal/mol

--------
ENTHALPY
--------

The enthalpy is H = U + kB*T
                kB is Boltzmann's constant
Total free energy                 ...   -305.54613367 Eh
Thermal Enthalpy correction       ...      0.00094421 Eh       0.59 kcal/mol
-----------------------------------------------------------------------
Total Enthalpy                    ...   -305.54518946 Eh

Note: Rotational entropy computed according to Herzberg
Infrared and Raman Spectra, Chapter V,1, Van Nostrand Reinhold, 1945
Point Group:  C2, Symmetry Number:   2
Rotational constants in cm-1:     0.198973     0.067877     0.052704

Vibrational entropy computed according to the QRRHO of S. Grimme
Chem.Eur.J. 2012 18 9955

-------
ENTROPY
-------

The entropy contributions are T*S = T*(S(el)+S(vib)+S(rot)+S(trans))
     S(el)   - electronic entropy
     S(vib)  - vibrational entropy
     S(rot)  - rotational entropy
     S(trans)- translational entropy
The entropies will be listed as multiplied by the temperature to get
units of energy

Electronic entropy                ...      0.00000000 Eh      0.00 kcal/mol
Vibrational entropy               ...      0.00811973 Eh      5.10 kcal/mol
Rotational entropy                ...      0.01227792 Eh      7.70 kcal/mol
Translational entropy             ...      0.01884478 Eh     11.83 kcal/mol
-----------------------------------------------------------------------
Final entropy term                ...      0.03924244 Eh     24.62 kcal/mol

In case the symmetry of your molecule has not been determined correctly
or in case you have a reason to use a different symmetry number we print
out the resulting rotational entropy values for sn=1,12 :
 --------------------------------------------------------
|  sn= 1 | S(rot)=       0.01293238 Eh      8.12 kcal/mol|
|  sn= 2 | S(rot)=       0.01227792 Eh      7.70 kcal/mol|
|  sn= 3 | S(rot)=       0.01189509 Eh      7.46 kcal/mol|
|  sn= 4 | S(rot)=       0.01162347 Eh      7.29 kcal/mol|
|  sn= 5 | S(rot)=       0.01141278 Eh      7.16 kcal/mol|
|  sn= 6 | S(rot)=       0.01124064 Eh      7.05 kcal/mol|
|  sn= 7 | S(rot)=       0.01109509 Eh      6.96 kcal/mol|
|  sn= 8 | S(rot)=       0.01096901 Eh      6.88 kcal/mol|
|  sn= 9 | S(rot)=       0.01085780 Eh      6.81 kcal/mol|
|  sn=10 | S(rot)=       0.01075832 Eh      6.75 kcal/mol|
|  sn=11 | S(rot)=       0.01066833 Eh      6.69 kcal/mol|
|  sn=12 | S(rot)=       0.01058618 Eh      6.64 kcal/mol|
 --------------------------------------------------------

-------------------
GIBBS FREE ENERGY
-------------------

The Gibbs free energy is G = H - T*S

Total enthalpy                    ...   -305.54518946 Eh
Total entropy correction          ...     -0.03924244 Eh    -24.62 kcal/mol

                             ****ORCA TERMINATED NORMALLY****
TOTAL RUN TIME: 0 days 0 hours 4 minutes 13 seconds 225 msec
