                         Program Version 5.0.4 -  RELEASE  -
|  1> # ORCA 5.0.4 - 1+.inp # write input file
|  2> # Basic Mode
|  3> #
|  4> ! Freq wB97X Def2-SVP D4 SlowConv TightSCF DEFGRID2 Def2/J RIJCOSX
|  5>
|  6>
|  7>
|  8> %maxcore 4500
|  9>
| 10> %geom
| 11> Maxiter 150
| 12> END
| 13>
| 14> * xyzfile 1 1 1+.xyz
| 15>
| 16>                          ****END OF INPUT****

CARTESIAN COORDINATES (ANGSTROEM)
---------------------------------
  C      0.988145   -0.091134   -1.358138
  C     -0.163014   -0.808566   -1.468096
  N      1.051977    0.369511   -0.061240
  N     -0.779028   -0.771422   -0.236328
  C     -0.025334   -0.054895    0.593233
  H      1.764281    0.133460   -2.087116
  H     -0.599175   -1.336898   -2.313516
  C      2.124645    1.182890    0.499685
  C     -2.044727   -1.414688    0.098124
  H      3.065333    0.618716    0.470150
  H      1.873143    1.428335    1.537826
  H      2.222477    2.106490   -0.084545
  H     -0.254651    0.151644    1.638829
  H     -1.939948   -2.502144   -0.004823
  H     -2.826968   -1.048353   -0.578350
  H     -2.304128   -1.164007    1.133335

 Total Charge           Charge          ....    1
 Multiplicity           Mult            ....    1
 Number of Electrons    NEL             ....   52
 Basis Dimension        Dim             ....  143

ORBITAL ENERGIES
----------------

  NO   OCC          E(Eh)            E(eV)
   0   2.0000     -14.676605      -399.3707
   1   2.0000     -14.676575      -399.3699
   2   2.0000     -10.548827      -287.0482
   3   2.0000     -10.495129      -285.5870
   4   2.0000     -10.494549      -285.5712
   5   2.0000     -10.486177      -285.3434
   6   2.0000     -10.486132      -285.3421
   7   2.0000      -1.379705       -37.5437
   8   2.0000      -1.256133       -34.1811
   9   2.0000      -1.099391       -29.9160
  10   2.0000      -1.062855       -28.9217
  11   2.0000      -0.996855       -27.1258
  12   2.0000      -0.934643       -25.4329
  13   2.0000      -0.901512       -24.5314
  14   2.0000      -0.843575       -22.9548
  15   2.0000      -0.802094       -21.8261
  16   2.0000      -0.760203       -20.6862
  17   2.0000      -0.755510       -20.5585
  18   2.0000      -0.741561       -20.1789
  19   2.0000      -0.738721       -20.1016
  20   2.0000      -0.729097       -19.8397
  21   2.0000      -0.683126       -18.5888
  22   2.0000      -0.678952       -18.4752
  23   2.0000      -0.675015       -18.3681
  24   2.0000      -0.578435       -15.7400
  25   2.0000      -0.536908       -14.6100
  26   0.0000      -0.099949        -2.7197
  27   0.0000      -0.066529        -1.8103
  28   0.0000      -0.008040        -0.2188
  29   0.0000       0.004782         0.1301
  30   0.0000       0.020757         0.5648

MULLIKEN ATOMIC CHARGES
-----------------------
   0 C :    0.078528
   1 C :    0.078646
   2 N :   -0.222706
   3 N :   -0.223120
   4 C :    0.206679
   5 H :    0.107021
   6 H :    0.106968
   7 C :    0.060349
   8 C :    0.060469
   9 H :    0.110795
  10 H :    0.090855
  11 H :    0.109322
  12 H :    0.125160
  13 H :    0.110789
  14 H :    0.109106
  15 H :    0.091137
Sum of atomic charges:    1.0000000

LOEWDIN ATOMIC CHARGES
----------------------
   0 C :    0.030264
   1 C :    0.030330
   2 N :    0.092124
   3 N :    0.091991
   4 C :    0.112755
   5 H :    0.063199
   6 H :    0.063148
   7 C :    0.057008
   8 C :    0.057056
   9 H :    0.057989
  10 H :    0.053770
  11 H :    0.058020
  12 H :    0.062511
  13 H :    0.057985
  14 H :    0.057983
  15 H :    0.053866

  Mayer bond orders larger than 0.100000
B(  0-C ,  1-C ) :   1.6155 B(  0-C ,  2-N ) :   1.1756 B(  0-C ,  5-H ) :   0.9826
B(  1-C ,  3-N ) :   1.1758 B(  1-C ,  6-H ) :   0.9826 B(  2-N ,  4-C ) :   1.3593
B(  2-N ,  7-C ) :   0.8874 B(  3-N ,  4-C ) :   1.3590 B(  3-N ,  8-C ) :   0.8874
B(  4-C , 12-H ) :   0.9683 B(  7-C ,  9-H ) :   0.9722 B(  7-C , 10-H ) :   0.9724
B(  7-C , 11-H ) :   0.9722 B(  8-C , 13-H ) :   0.9722 B(  8-C , 14-H ) :   0.9722
B(  8-C , 15-H ) :   0.9724

Dispersion correction           -0.001653232
FINAL SINGLE POINT ENERGY      -304.931953846204

DIPOLE MOMENT
-------------
                                X             Y             Z
Electronic contribution:      0.32203      -0.28638      -1.47037
Nuclear contribution   :     -0.40012       0.35641       1.82540
                        -----------------------------------------
Total Dipole Moment    :     -0.07809       0.07002       0.35503
                        -----------------------------------------
Magnitude (a.u.)       :      0.37020
Magnitude (Debye)      :      0.94097

Dispersion correction in the Hessian             ... Starting D4

VIBRATIONAL FREQUENCIES
-----------------------

Scaling factor for frequencies =  1.000000000  (already applied!)

   0:         0.00 cm**-1
   1:         0.00 cm**-1
   2:         0.00 cm**-1
   3:         0.00 cm**-1
   4:         0.00 cm**-1
   5:         0.00 cm**-1
   6:        94.65 cm**-1
   7:       138.10 cm**-1
   8:       190.75 cm**-1
   9:       275.86 cm**-1
  10:       281.31 cm**-1
  11:       425.39 cm**-1
  12:       626.66 cm**-1
  13:       646.89 cm**-1
  14:       651.06 cm**-1
  15:       741.10 cm**-1
  16:       778.86 cm**-1
  17:       878.63 cm**-1
  18:       918.40 cm**-1
  19:      1053.95 cm**-1
  20:      1057.47 cm**-1
  21:      1101.60 cm**-1
  22:      1109.52 cm**-1
  23:      1125.89 cm**-1
  24:      1144.43 cm**-1
  25:      1151.15 cm**-1
  26:      1213.91 cm**-1
  27:      1292.42 cm**-1
  28:      1409.02 cm**-1
  29:      1447.31 cm**-1
  30:      1448.25 cm**-1
  31:      1454.19 cm**-1
  32:      1463.94 cm**-1
  33:      1465.49 cm**-1
  34:      1471.06 cm**-1
  35:      1509.89 cm**-1
  36:      1517.51 cm**-1
  37:      1664.62 cm**-1
  38:      1681.11 cm**-1
  39:      3104.13 cm**-1
  40:      3105.05 cm**-1
  41:      3223.42 cm**-1
  42:      3223.98 cm**-1
  43:      3235.62 cm**-1
  44:      3236.82 cm**-1
  45:      3297.50 cm**-1
  46:      3301.14 cm**-1
  47:      3319.61 cm**-1

IR SPECTRUM
-----------

 Mode   freq       eps      Int      T**2         TX        TY        TZ
       cm**-1   L/(mol*cm) km/mol    a.u.
----------------------------------------------------------------------------
  6:     94.65   0.000091    0.46  0.000299  ( 0.008222 -0.014276  0.005288)
  7:    138.10   0.000068    0.34  0.000154  (-0.006374  0.009819 -0.004111)
  8:    190.75   0.000922    4.66  0.001509  (-0.018930  0.032240 -0.010549)
  9:    275.86   0.000003    0.02  0.000004  ( 0.001073 -0.000560 -0.001516)
 10:    281.31   0.000098    0.50  0.000109  (-0.002533  0.002704  0.009750)
 11:    425.39   0.000012    0.06  0.000009  (-0.002513 -0.001560 -0.000302)
 12:    626.66   0.000220    1.11  0.000110  (-0.001975  0.001508  0.010179)
 13:    646.89   0.000065    0.33  0.000031  (-0.002360  0.004912 -0.001334)
 14:    651.06   0.005801   29.32  0.002781  (-0.025947  0.043697 -0.014067)
 15:    741.10   0.001089    5.50  0.000459  ( 0.018180  0.011192  0.001662)
 16:    778.86   0.006639   33.55  0.002660  (-0.025442  0.042913 -0.013087)
 17:    878.63   0.004533   22.91  0.001610  ( 0.019620 -0.033216  0.011041)
 18:    918.40   0.000002    0.01  0.000001  (-0.000387  0.000776 -0.000224)
 19:   1053.95   0.000291    1.47  0.000086  ( 0.007358  0.005134  0.002374)
 20:   1057.47   0.000471    2.38  0.000139  (-0.003037  0.001700  0.011263)
 21:   1101.60   0.001648    8.33  0.000467  (-0.004669  0.003159  0.020859)
 22:   1109.52   0.001114    5.63  0.000313  ( 0.014755  0.009467  0.002451)
 23:   1125.89   0.000504    2.55  0.000140  (-0.002231  0.002027  0.011431)
 24:   1144.43   0.000040    0.20  0.000011  ( 0.003117  0.000932  0.000590)
 25:   1151.15   0.000054    0.27  0.000015  (-0.001131  0.003533 -0.000913)
 26:   1213.91   0.015847   80.09  0.004074  (-0.054047 -0.033585 -0.004994)
 27:   1292.42   0.000015    0.08  0.000004  (-0.001672 -0.000922 -0.000001)
 28:   1409.02   0.000096    0.49  0.000021  ( 0.001040 -0.001129 -0.004354)
 29:   1447.31   0.001298    6.56  0.000280  ( 0.014533  0.007562  0.003384)
 30:   1448.25   0.000086    0.43  0.000018  ( 0.003423  0.001578 -0.002056)
 31:   1454.19   0.000386    1.95  0.000083  (-0.000257  0.005573 -0.007185)
 32:   1463.94   0.000061    0.31  0.000013  ( 0.000290  0.002913  0.002108)
 33:   1465.49   0.007793   39.38  0.001659  ( 0.018984 -0.033117  0.014222)
 34:   1471.06   0.006719   33.96  0.001425  ( 0.010257 -0.010445 -0.034801)
 35:   1509.89   0.000207    1.05  0.000043  (-0.005651 -0.003245  0.000629)
 36:   1517.51   0.001736    8.77  0.000357  (-0.003761  0.004596  0.017938)
 37:   1664.62   0.002362   11.94  0.000443  (-0.004368  0.004014  0.020191)
 38:   1681.11   0.019512   98.61  0.003622  (-0.050916 -0.031699 -0.004977)
 39:   3104.13   0.000450    2.28  0.000045  ( 0.005618  0.002816 -0.002403)
 40:   3105.05   0.000496    2.51  0.000050  (-0.004983 -0.003919 -0.003107)
 41:   3223.42   0.000086    0.44  0.000008  ( 0.001449 -0.002357  0.000835)
 42:   3223.98   0.000116    0.58  0.000011  (-0.001547  0.002767 -0.001064)
 43:   3235.62   0.000054    0.27  0.000005  (-0.000431 -0.000592 -0.002156)
 44:   3236.82   0.000051    0.26  0.000005  ( 0.001293  0.000057 -0.001802)
 45:   3297.50   0.007194   36.36  0.000681  ( 0.005783 -0.004719 -0.025003)
 46:   3301.14   0.004331   21.89  0.000409  ( 0.017123  0.010669  0.001548)
 47:   3319.61   0.003357   16.96  0.000316  ( 0.002873 -0.003666 -0.017143)

--------------------------
THERMOCHEMISTRY AT 298.15K
--------------------------

Temperature         ... 298.15 K
Pressure            ... 1.00 atm
Total Mass          ... 97.14 AMU

Throughout the following assumptions are being made:
  (1) The electronic state is orbitally nondegenerate
  (2) There are no thermally accessible electronically excited states
  (3) Hindered rotations indicated by low frequency modes are not
      treated as such but are treated as vibrations and this may
      cause some error
  (4) All equations used are the standard statistical mechanics
      equations for an ideal gas
  (5) All vibrations are strictly harmonic

freq.      94.65  E(vib)   ...       0.47
freq.     138.10  E(vib)   ...       0.42
freq.     190.75  E(vib)   ...       0.36
freq.     275.86  E(vib)   ...       0.28
freq.     281.31  E(vib)   ...       0.28
freq.     425.39  E(vib)   ...       0.18
freq.     626.66  E(vib)   ...       0.09
freq.     646.89  E(vib)   ...       0.09
freq.     651.06  E(vib)   ...       0.08
freq.     741.10  E(vib)   ...       0.06
freq.     778.86  E(vib)   ...       0.05
freq.     878.63  E(vib)   ...       0.04
freq.     918.40  E(vib)   ...       0.03
freq.    1053.95  E(vib)   ...       0.02
freq.    1057.47  E(vib)   ...       0.02
freq.    1101.60  E(vib)   ...       0.02
freq.    1109.52  E(vib)   ...       0.02
freq.    1125.89  E(vib)   ...       0.01
freq.    1144.43  E(vib)   ...       0.01
freq.    1151.15  E(vib)   ...       0.01
freq.    1213.91  E(vib)   ...       0.01
freq.    1292.42  E(vib)   ...       0.01
freq.    1409.02  E(vib)   ...       0.00
freq.    1447.31  E(vib)   ...       0.00
freq.    1448.25  E(vib)   ...       0.00
freq.    1454.19  E(vib)   ...       0.00
freq.    1463.94  E(vib)   ...       0.00
freq.    1465.49  E(vib)   ...       0.00
freq.    1471.06  E(vib)   ...       0.00
freq.    1509.89  E(vib)   ...       0.00
freq.    1517.51  E(vib)   ...       0.00
freq.    1664.62  E(vib)   ...       0.00
freq.    1681.11  E(vib)   ...       0.00
freq.    3104.13  E(vib)   ...       0.00
freq.    3105.05  E(vib)   ...       0.00
freq.    3223.42  E(vib)   ...       0.00
freq.    3223.98  E(vib)   ...       0.00
freq.    3235.62  E(vib)   ...       0.00
freq.    3236.82  E(vib)   ...       0.00
freq.    3297.50  E(vib)   ...       0.00
freq.    3301.14  E(vib)   ...       0.00
freq.    3319.61  E(vib)   ...       0.00

------------
INNER ENERGY
------------

The inner energy is: U= E(el) + E(ZPE) + E(vib) + E(rot) + E(trans)
    E(el)   - is the total energy from the electronic structure calculation
              = E(kin-el) + E(nuc-el) + E(el-el) + E(nuc-nuc)
    E(ZPE)  - the the zero temperature vibrational energy from the frequency calculation
    E(vib)  - the the finite temperature correction to E(ZPE) due to population
              of excited vibrational states
    E(rot)  - is the rotational thermal energy
    E(trans)- is the translational thermal energy

Summary of contributions to the inner energy U:
Electronic energy                ...   -304.93195385 Eh
Zero point energy                ...      0.14233460 Eh      89.32 kcal/mol
Thermal vibrational correction   ...      0.00412765 Eh       2.59 kcal/mol
Thermal rotational correction    ...      0.00141627 Eh       0.89 kcal/mol
Thermal translational correction ...      0.00141627 Eh       0.89 kcal/mol
-----------------------------------------------------------------------
Total thermal energy                   -304.78265906 Eh

Summary of corrections to the electronic energy:
(perhaps to be used in another calculation)
Total thermal correction                  0.00696019 Eh       4.37 kcal/mol
Non-thermal (ZPE) correction              0.14233460 Eh      89.32 kcal/mol
-----------------------------------------------------------------------
Total correction                          0.14929479 Eh      93.68 kcal/mol

--------
ENTHALPY
--------

The enthalpy is H = U + kB*T
                kB is Boltzmann's constant
Total free energy                 ...   -304.78265906 Eh
Thermal Enthalpy correction       ...      0.00094421 Eh       0.59 kcal/mol
-----------------------------------------------------------------------
Total Enthalpy                    ...   -304.78171485 Eh

Note: Only C1 symmetry has been detected, increase convergence thresholds
      if your molecule has a higher symmetry. Symmetry factor of 1.0 is
      used for the rotational entropy correction.

Note: Rotational entropy computed according to Herzberg
Infrared and Raman Spectra, Chapter V,1, Van Nostrand Reinhold, 1945
Point Group:  C1, Symmetry Number:   1
Rotational constants in cm-1:     0.227833     0.068832     0.053964

Vibrational entropy computed according to the QRRHO of S. Grimme
Chem.Eur.J. 2012 18 9955

-------
ENTROPY
-------

The entropy contributions are T*S = T*(S(el)+S(vib)+S(rot)+S(trans))
     S(el)   - electronic entropy
     S(vib)  - vibrational entropy
     S(rot)  - rotational entropy
     S(trans)- translational entropy
The entropies will be listed as multiplied by the temperature to get
units of energy

Electronic entropy                ...      0.00000000 Eh      0.00 kcal/mol
Vibrational entropy               ...      0.00698924 Eh      4.39 kcal/mol
Rotational entropy                ...      0.01285070 Eh      8.06 kcal/mol
Translational entropy             ...      0.01883016 Eh     11.82 kcal/mol
-----------------------------------------------------------------------
Final entropy term                ...      0.03867010 Eh     24.27 kcal/mol

In case the symmetry of your molecule has not been determined correctly
or in case you have a reason to use a different symmetry number we print
out the resulting rotational entropy values for sn=1,12 :
 --------------------------------------------------------
|  sn= 1 | S(rot)=       0.01285070 Eh      8.06 kcal/mol|
|  sn= 2 | S(rot)=       0.01219624 Eh      7.65 kcal/mol|
|  sn= 3 | S(rot)=       0.01181341 Eh      7.41 kcal/mol|
|  sn= 4 | S(rot)=       0.01154179 Eh      7.24 kcal/mol|
|  sn= 5 | S(rot)=       0.01133110 Eh      7.11 kcal/mol|
|  sn= 6 | S(rot)=       0.01115895 Eh      7.00 kcal/mol|
|  sn= 7 | S(rot)=       0.01101341 Eh      6.91 kcal/mol|
|  sn= 8 | S(rot)=       0.01088733 Eh      6.83 kcal/mol|
|  sn= 9 | S(rot)=       0.01077612 Eh      6.76 kcal/mol|
|  sn=10 | S(rot)=       0.01067664 Eh      6.70 kcal/mol|
|  sn=11 | S(rot)=       0.01058665 Eh      6.64 kcal/mol|
|  sn=12 | S(rot)=       0.01050450 Eh      6.59 kcal/mol|
 --------------------------------------------------------

-------------------
GIBBS FREE ENERGY
-------------------

The Gibbs free energy is G = H - T*S

                             ****ORCA TERMINATED NORMALLY****
TOTAL RUN TIME: 0 days 0 hours 8 minutes 29 seconds 274 msec
