                         Program Version 5.0.4 -  RELEASE  -
|  1> ! SP wB97X D4 def2-SVP def2/J defgrid2
|  2> %maxcore 3000
|  3> %PAL NPROCS 4 END
|  4> * xyz 1 1
|  5> C -0.0677 1.1124 1.2485
|  6> C -0.0689 -0.9596 0.0
|  7> C -0.0677 1.1124 -1.2485
|  8> C 0.5619 1.7061 -0.0
|  9> H -1.1058 1.4602 1.3831
| 10> H -0.0717 -2.0544 -0.0
| 11> H 0.5011 1.3925 -2.1464
| 12> H 1.6445 1.5017 -0.0
| 13> N -0.0686 -0.349 1.1641
| 14> N -0.0686 -0.349 -1.1641
| 15> H -1.1058 1.4602 -1.3831
| 16> H 0.4288 2.7964 0.0
| 17> H 0.5011 1.3925 2.1464
| 18> C -0.1092 -1.0993 2.4104
| 19> H -0.1443 -2.175 2.1967
| 20> H 0.7858 -0.8755 3.0091
| 21> H -1.0042 -0.816 2.9838
| 22> C -0.1092 -1.0993 -2.4104
| 23> H 0.7858 -0.8755 -3.0091
| 24> H -0.1443 -2.175 -2.1967
| 25> H -1.0042 -0.816 -2.9838
| 26> **                         ****END OF INPUT****

CARTESIAN COORDINATES (ANGSTROEM)
---------------------------------
  C     -0.067700    1.112400    1.248500
  C     -0.068900   -0.959600    0.000000
  C     -0.067700    1.112400   -1.248500
  C      0.561900    1.706100   -0.000000
  H     -1.105800    1.460200    1.383100
  H     -0.071700   -2.054400   -0.000000
  H      0.501100    1.392500   -2.146400
  H      1.644500    1.501700   -0.000000
  N     -0.068600   -0.349000    1.164100
  N     -0.068600   -0.349000   -1.164100
  H     -1.105800    1.460200   -1.383100
  H      0.428800    2.796400    0.000000
  H      0.501100    1.392500    2.146400
  C     -0.109200   -1.099300    2.410400
  H     -0.144300   -2.175000    2.196700
  H      0.785800   -0.875500    3.009100
  H     -1.004200   -0.816000    2.983800
  C     -0.109200   -1.099300   -2.410400
  H      0.785800   -0.875500   -3.009100
  H     -0.144300   -2.175000   -2.196700
  H     -1.004200   -0.816000   -2.983800

 Total Charge           Charge          ....    1
 Multiplicity           Mult            ....    1
 Number of Electrons    NEL             ....   62
 Basis Dimension        Dim             ....  177

ORBITAL ENERGIES
----------------

  NO   OCC          E(Eh)            E(eV)
   0   2.0000     -14.638026      -398.3209
   1   2.0000     -14.638024      -398.3209
   2   2.0000     -10.556477      -287.2563
   3   2.0000     -10.477481      -285.1068
   4   2.0000     -10.477467      -285.1064
   5   2.0000     -10.470027      -284.9039
   6   2.0000     -10.470014      -284.9036
   7   2.0000     -10.439330      -284.0686
   8   2.0000      -1.320710       -35.9384
   9   2.0000      -1.242622       -33.8135
  10   2.0000      -1.099979       -29.9320
  11   2.0000      -1.042576       -28.3699
  12   2.0000      -1.009361       -27.4661
  13   2.0000      -0.958633       -26.0857
  14   2.0000      -0.945144       -25.7187
  15   2.0000      -0.837101       -22.7787
  16   2.0000      -0.811975       -22.0950
  17   2.0000      -0.805058       -21.9068
  18   2.0000      -0.778443       -21.1825
  19   2.0000      -0.746343       -20.3090
  20   2.0000      -0.730707       -19.8835
  21   2.0000      -0.721313       -19.6279
  22   2.0000      -0.717528       -19.5249
  23   2.0000      -0.682552       -18.5732
  24   2.0000      -0.677035       -18.4231
  25   2.0000      -0.668354       -18.1868
  26   2.0000      -0.646150       -17.5826
  27   2.0000      -0.628177       -17.0936
  28   2.0000      -0.620528       -16.8854
  29   2.0000      -0.604011       -16.4360
  30   2.0000      -0.511603       -13.9214
  31   0.0000      -0.094799        -2.5796
  32   0.0000      -0.019446        -0.5291
  33   0.0000       0.007850         0.2136
  34   0.0000       0.014281         0.3886
  35   0.0000       0.038791         1.0556

MULLIKEN ATOMIC CHARGES
-----------------------
   0 C :    0.100802
   1 C :    0.239833
   2 C :    0.100803
   3 C :   -0.094916
   4 H :    0.087146
   5 H :    0.098925
   6 H :    0.085164
   7 H :    0.078436
   8 N :   -0.313636
   9 N :   -0.313637
  10 H :    0.087146
  11 H :    0.096256
  12 H :    0.085164
  13 C :    0.064125
  14 H :    0.079610
  15 H :    0.094603
  16 H :    0.092919
  17 C :    0.064125
  18 H :    0.094602
  19 H :    0.079611
  20 H :    0.092919
Sum of atomic charges:    1.0000000

LOEWDIN ATOMIC CHARGES
----------------------
   0 C :    0.053792
   1 C :    0.160766
   2 C :    0.053792
   3 C :   -0.040328
   4 H :    0.045259
   5 H :    0.057702
   6 H :    0.051053
   7 H :    0.046800
   8 N :    0.013181
   9 N :    0.013181
  10 H :    0.045259
  11 H :    0.062416
  12 H :    0.051053
  13 C :    0.049837
  14 H :    0.045976
  15 H :    0.048146
  16 H :    0.049078
  17 C :    0.049837
  18 H :    0.048146
  19 H :    0.045976
  20 H :    0.049078

  Mayer bond orders larger than 0.100000
B(  0-C ,  3-C ) :   1.0669 B(  0-C ,  4-H ) :   0.9573 B(  0-C ,  8-N ) :   0.8932
B(  0-C , 12-H ) :   0.9514 B(  1-C ,  5-H ) :   0.9625 B(  1-C ,  8-N ) :   1.4300
B(  1-C ,  9-N ) :   1.4300 B(  2-C ,  3-C ) :   1.0669 B(  2-C ,  6-H ) :   0.9514
B(  2-C ,  9-N ) :   0.8932 B(  2-C , 10-H ) :   0.9573 B(  3-C ,  7-H ) :   0.9484
B(  3-C , 11-H ) :   0.9431 B(  8-N , 13-C ) :   0.9118 B(  9-N , 17-C ) :   0.9118
B( 13-C , 14-H ) :   0.9705 B( 13-C , 15-H ) :   0.9721 B( 13-C , 16-H ) :   0.9708
B( 17-C , 18-H ) :   0.9721 B( 17-C , 19-H ) :   0.9705 B( 17-C , 20-H ) :   0.9708

Dispersion correction           -0.002463551
FINAL SINGLE POINT ENERGY      -345.428048601308

DIPOLE MOMENT
-------------
                                X             Y             Z
Electronic contribution:     -0.16177      -0.64253       0.00000
Nuclear contribution   :      0.08160       0.22890       0.00000
                        -----------------------------------------
Total Dipole Moment    :     -0.08017      -0.41364       0.00000
                        -----------------------------------------
Magnitude (a.u.)       :      0.42133
Magnitude (Debye)      :      1.07094

Rotational constants in cm-1:     0.107500     0.059055     0.040189
Rotational constants in MHz :  3222.768635  1770.424963  1204.832953

                             ****ORCA TERMINATED NORMALLY****
TOTAL RUN TIME: 0 days 0 hours 0 minutes 39 seconds 90 msec
