                         Program Version 5.0.4 -  RELEASE  -
|  1> # ORCAForces - ../2023_04/pKa_prediction/extra_carbenes/Water/10+_Water.inp
|  2> # Basic Mode
|  3> #
|  4> ! Opt FREQ wB97X D4 Def2-SVP SlowConv TightSCF DEFGRID2 Def2/J RIJCOSX CPCM(Water)
|  5>
|  6> %maxcore 4500
|  7>
|  8> %PAL NPROCS 4 END
|  9>
| 10> %geom
| 11> Maxiter 150
| 12> END
| 13>
| 14> * xyzfile 1 1 10+.xyz
| 15>
| 16>                          ****END OF INPUT****
 Total Charge           Charge          ....    1
 Multiplicity           Mult            ....    1
 Number of Electrons    NEL             ....   62
Dispersion correction           -0.002456100
FINAL SINGLE POINT ENERGY      -345.507866338019
Dispersion correction            ... Starting D4
Dispersion correction           -0.002462976
FINAL SINGLE POINT ENERGY      -345.508408794660
Dispersion correction            ... Starting D4
Dispersion correction           -0.002463677
FINAL SINGLE POINT ENERGY      -345.508433152107
Dispersion correction            ... Starting D4
Dispersion correction           -0.002463648
FINAL SINGLE POINT ENERGY      -345.508439686002
Dispersion correction            ... Starting D4
                    ***********************HURRAY********************

CARTESIAN COORDINATES (ANGSTROEM)
---------------------------------
  C     -0.067683    1.112356    1.248474
  C     -0.068945   -0.959562    0.000000
  C     -0.067683    1.112356   -1.248474
  C      0.561895    1.706088   -0.000000
  H     -1.105754    1.460156    1.383121
  H     -0.071680   -2.054425   -0.000000
  H      0.501110    1.392500   -2.146431
  H      1.644471    1.501677   -0.000000
  N     -0.068599   -0.349025    1.164092
  N     -0.068601   -0.349025   -1.164092
  H     -1.105754    1.460157   -1.383122
  H      0.428817    2.796426    0.000000
  H      0.501110    1.392501    2.146431
  C     -0.109217   -1.099342    2.410388
  H     -0.144312   -2.175028    2.196723
  H      0.785775   -0.875494    3.009112
  H     -1.004184   -0.816030    2.983849
  C     -0.109217   -1.099342   -2.410387
  H      0.785776   -0.875495   -3.009110
  H     -0.144315   -2.175028   -2.196723
  H     -1.004183   -0.816028   -2.983850

 Multiplicity           Mult            ....    1
 Number of Electrons    NEL             ....   62
 Basis Dimension        Dim             ....  177

ORBITAL ENERGIES
----------------

  NO   OCC          E(Eh)            E(eV)
   0   2.0000     -14.482097      -394.0779
   1   2.0000     -14.482096      -394.0779
   2   2.0000     -10.397601      -282.9331
   3   2.0000     -10.323991      -280.9301
   4   2.0000     -10.323976      -280.9297
   5   2.0000     -10.318077      -280.7692
   6   2.0000     -10.318064      -280.7688
   7   2.0000     -10.288853      -279.9739
   8   2.0000      -1.164168       -31.6786
   9   2.0000      -1.086803       -29.5734
  10   2.0000      -0.946228       -25.7482
  11   2.0000      -0.888296       -24.1718
  12   2.0000      -0.855549       -23.2807
  13   2.0000      -0.804752       -21.8984
  14   2.0000      -0.790823       -21.5194
  15   2.0000      -0.680504       -18.5174
  16   2.0000      -0.658608       -17.9216
  17   2.0000      -0.650906       -17.7120
  18   2.0000      -0.624043       -16.9811
  19   2.0000      -0.592458       -16.1216
  20   2.0000      -0.577576       -15.7166
  21   2.0000      -0.567253       -15.4357
  22   2.0000      -0.563030       -15.3208
  23   2.0000      -0.529155       -14.3990
  24   2.0000      -0.524705       -14.2779
  25   2.0000      -0.515120       -14.0171
  26   2.0000      -0.493459       -13.4277
  27   2.0000      -0.475579       -12.9412
  28   2.0000      -0.467618       -12.7245
  29   2.0000      -0.450556       -12.2603
  30   2.0000      -0.357002        -9.7145
  31   0.0000       0.063255         1.7213
  32   0.0000       0.133325         3.6280
  33   0.0000       0.161414         4.3923
  34   0.0000       0.164100         4.4654
  35   0.0000       0.183033         4.9806

MULLIKEN ATOMIC CHARGES
-----------------------
   0 C :    0.119854
   1 C :    0.253422
   2 C :    0.119857
   3 C :   -0.090390
   4 H :    0.081189
   5 H :    0.123257
   6 H :    0.077266
   7 H :    0.070560
   8 N :   -0.317124
   9 N :   -0.317124
  10 H :    0.081188
  11 H :    0.079362
  12 H :    0.077266
  13 C :    0.078558
  14 H :    0.082234
  15 H :    0.081500
  16 H :    0.078416
  17 C :    0.078558
  18 H :    0.081499
  19 H :    0.082235
  20 H :    0.078416
Sum of atomic charges:    1.0000000

LOEWDIN ATOMIC CHARGES
----------------------
   0 C :    0.055984
   1 C :    0.172560
   2 C :    0.055984
   3 C :   -0.040991
   4 H :    0.044309
   5 H :    0.069028
   6 H :    0.049134
   7 H :    0.044057
   8 N :    0.014594
   9 N :    0.014594
  10 H :    0.044309
  11 H :    0.056232
  12 H :    0.049134
  13 C :    0.049822
  14 H :    0.048323
  15 H :    0.043548
  16 H :    0.043842
  17 C :    0.049822
  18 H :    0.043548
  19 H :    0.048323
  20 H :    0.043842

  Mayer bond orders larger than 0.100000
B(  0-C ,  3-C ) :   1.0704 B(  0-C ,  4-H ) :   0.9565 B(  0-C ,  8-N ) :   0.8992
B(  0-C , 12-H ) :   0.9510 B(  1-C ,  5-H ) :   0.9588 B(  1-C ,  8-N ) :   1.4260
B(  1-C ,  9-N ) :   1.4260 B(  2-C ,  3-C ) :   1.0704 B(  2-C ,  6-H ) :   0.9510
B(  2-C ,  9-N ) :   0.8992 B(  2-C , 10-H ) :   0.9565 B(  3-C ,  7-H ) :   0.9487
B(  3-C , 11-H ) :   0.9443 B(  8-N , 13-C ) :   0.9237 B(  9-N , 17-C ) :   0.9237
B( 13-C , 14-H ) :   0.9708 B( 13-C , 15-H ) :   0.9735 B( 13-C , 16-H ) :   0.9723
B( 17-C , 18-H ) :   0.9735 B( 17-C , 19-H ) :   0.9708 B( 17-C , 20-H ) :   0.9723

Dispersion correction           -0.002463552
FINAL SINGLE POINT ENERGY      -345.508440264252

DIPOLE MOMENT
-------------
                                X             Y             Z
Electronic contribution:     -0.18788      -0.79250       0.00000
Nuclear contribution   :      0.08173       0.22898      -0.00000
                        -----------------------------------------
Total Dipole Moment    :     -0.10615      -0.56351       0.00000
                        -----------------------------------------
Magnitude (a.u.)       :      0.57343
Magnitude (Debye)      :      1.45753

Dispersion correction in the Hessian             ... Starting D4

VIBRATIONAL FREQUENCIES
-----------------------

Scaling factor for frequencies =  1.000000000  (already applied!)

   0:         0.00 cm**-1
   1:         0.00 cm**-1
   2:         0.00 cm**-1
   3:         0.00 cm**-1
   4:         0.00 cm**-1
   5:         0.00 cm**-1
   6:       116.28 cm**-1
   7:       155.89 cm**-1
   8:       198.69 cm**-1
   9:       222.34 cm**-1
  10:       272.98 cm**-1
  11:       306.48 cm**-1
  12:       319.05 cm**-1
  13:       426.36 cm**-1
  14:       460.47 cm**-1
  15:       477.33 cm**-1
  16:       530.61 cm**-1
  17:       625.28 cm**-1
  18:       807.05 cm**-1
  19:       884.55 cm**-1
  20:       917.81 cm**-1
  21:       943.12 cm**-1
  22:      1010.91 cm**-1
  23:      1044.59 cm**-1
  24:      1071.18 cm**-1
  25:      1125.65 cm**-1
  26:      1128.26 cm**-1
  27:      1139.35 cm**-1
  28:      1142.06 cm**-1
  29:      1162.49 cm**-1
  30:      1206.30 cm**-1
  31:      1237.24 cm**-1
  32:      1275.80 cm**-1
  33:      1282.89 cm**-1
  34:      1339.58 cm**-1
  35:      1353.90 cm**-1
  36:      1405.61 cm**-1
  37:      1417.63 cm**-1
  38:      1428.76 cm**-1
  39:      1445.74 cm**-1
  40:      1446.25 cm**-1
  41:      1449.31 cm**-1
  42:      1450.10 cm**-1
  43:      1458.15 cm**-1
  44:      1464.92 cm**-1
  45:      1466.06 cm**-1
  46:      1475.93 cm**-1
  47:      1489.37 cm**-1
  48:      1588.56 cm**-1
  49:      1798.76 cm**-1
  50:      3078.87 cm**-1
  51:      3079.90 cm**-1
  52:      3088.78 cm**-1
  53:      3091.54 cm**-1
  54:      3103.75 cm**-1
  55:      3167.53 cm**-1
  56:      3168.61 cm**-1
  57:      3182.20 cm**-1
  58:      3182.47 cm**-1
  59:      3183.21 cm**-1
  60:      3217.76 cm**-1
  61:      3217.78 cm**-1
  62:      3240.46 cm**-1

IR SPECTRUM
-----------

 Mode   freq       eps      Int      T**2         TX        TY        TZ
       cm**-1   L/(mol*cm) km/mol    a.u.
----------------------------------------------------------------------------
  6:    116.28   0.000008    0.04  0.000021  (-0.000000 -0.000000  0.004537)
  7:    155.89   0.001000    5.05  0.002001  ( 0.044617  0.003262  0.000000)
  8:    198.69   0.000035    0.18  0.000055  ( 0.000001 -0.000000  0.007402)
  9:    222.34   0.000445    2.25  0.000625  ( 0.024973  0.000978 -0.000000)
 10:    272.98   0.000072    0.37  0.000083  ( 0.009072 -0.000714 -0.000000)
 11:    306.48   0.000001    0.01  0.000001  ( 0.000000 -0.000000 -0.001201)
 12:    319.05   0.000009    0.04  0.000008  (-0.001303 -0.002575 -0.000000)
 13:    426.36   0.000014    0.07  0.000010  (-0.000001 -0.000000  0.003191)
 14:    460.47   0.006646   33.58  0.004504  ( 0.067105 -0.000821 -0.000000)
 15:    477.33   0.001232    6.22  0.000805  ( 0.000001 -0.000000  0.028376)
 16:    530.61   0.002147   10.85  0.001263  ( 0.034880  0.006787  0.000000)
 17:    625.28   0.000031    0.16  0.000015  ( 0.002501 -0.003040  0.000000)
 18:    807.05   0.000232    1.17  0.000090  ( 0.008714  0.003723  0.000000)
 19:    884.55   0.000459    2.32  0.000162  (-0.000000  0.000000 -0.012722)
 20:    917.81   0.000006    0.03  0.000002  (-0.000000  0.000000 -0.001418)
 21:    943.12   0.000362    1.83  0.000120  ( 0.010558 -0.002904 -0.000000)
 22:   1010.91   0.000458    2.31  0.000141  ( 0.010859 -0.004842 -0.000000)
 23:   1044.59   0.005877   29.70  0.001756  (-0.011699  0.040236  0.000000)
 24:   1071.18   0.000176    0.89  0.000051  (-0.000000 -0.000000  0.007166)
 25:   1125.65   0.001580    7.98  0.000438  ( 0.020441  0.004484 -0.000000)
 26:   1128.26   0.002336   11.80  0.000646  (-0.006532 -0.024563  0.000000)
 27:   1139.35   0.005911   29.87  0.001619  ( 0.000000  0.000000  0.040237)
 28:   1142.06   0.000005    0.02  0.000001  ( 0.000000 -0.000000 -0.001139)
 29:   1162.49   0.000203    1.03  0.000054  ( 0.006778  0.002917  0.000000)
 30:   1206.30   0.017251   87.18  0.004463  ( 0.000000 -0.000000  0.066803)
 31:   1237.24   0.011380   57.51  0.002870  (-0.000000  0.000000  0.053574)
 32:   1275.80   0.000700    3.54  0.000171  ( 0.000000  0.000000 -0.013088)
 33:   1282.89   0.007389   37.34  0.001797  (-0.020902 -0.036886 -0.000000)
 34:   1339.58   0.002490   12.58  0.000580  (-0.005460  0.023459 -0.000001)
 35:   1353.90   0.010764   54.40  0.002481  (-0.000000 -0.000000 -0.049810)
 36:   1405.61   0.004696   23.73  0.001043  (-0.000000 -0.000000 -0.032288)
 37:   1417.63   0.004488   22.68  0.000988  (-0.000000  0.000000 -0.031432)
 38:   1428.76   0.006358   32.13  0.001389  (-0.006587  0.036678  0.000000)
 39:   1445.74   0.010956   55.37  0.002365  (-0.000005 -0.000002  0.048630)
 40:   1446.25   0.006567   33.19  0.001417  (-0.033619 -0.016932 -0.000006)
 41:   1449.31   0.006518   32.94  0.001404  (-0.036202  0.009641 -0.000008)
 42:   1450.10   0.003565   18.02  0.000767  (-0.000009  0.000001  0.027699)
 43:   1458.15   0.000096    0.48  0.000021  (-0.004498  0.000531 -0.000000)
 44:   1464.92   0.000036    0.18  0.000008  (-0.000000 -0.000003 -0.002785)
 45:   1466.06   0.006102   30.84  0.001299  (-0.004781 -0.035722 -0.000000)
 46:   1475.93   0.000941    4.76  0.000199  (-0.003923 -0.013553  0.000000)
 47:   1489.37   0.004974   25.14  0.001042  ( 0.000000 -0.000000 -0.032284)
 48:   1588.56   0.009228   46.64  0.001813  ( 0.005164 -0.042263 -0.000000)
 49:   1798.76   0.193191  976.31  0.033516  (-0.000000  0.000000 -0.183075)
 50:   3078.87   0.012076   61.03  0.001224  ( 0.000000 -0.000000 -0.034986)
 51:   3079.90   0.001108    5.60  0.000112  ( 0.000237  0.010593 -0.000002)
 52:   3088.78   0.004072   20.58  0.000411  ( 0.000002 -0.000002 -0.020283)
 53:   3091.54   0.004155   21.00  0.000419  ( 0.014215 -0.014743  0.000002)
 54:   3103.75   0.002744   13.87  0.000276  ( 0.016147  0.003890  0.000000)
 55:   3167.53   0.000932    4.71  0.000092  ( 0.000003  0.000001 -0.009583)
 56:   3168.61   0.002191   11.07  0.000216  (-0.013981 -0.004506 -0.000002)
 57:   3182.20   0.003615   18.27  0.000355  (-0.018347  0.004234 -0.000000)
 58:   3182.47   0.000000    0.00  0.000000  (-0.000004  0.000001 -0.000074)
 59:   3183.21   0.000344    1.74  0.000034  (-0.000187 -0.005804  0.000000)
 60:   3217.76   0.000616    3.11  0.000060  (-0.000925 -0.007675 -0.000065)
 61:   3217.78   0.000498    2.52  0.000048  ( 0.000009  0.000072 -0.006951)
 62:   3240.46   0.000489    2.47  0.000047  ( 0.000622 -0.006832  0.000000)

--------------------------
THERMOCHEMISTRY AT 298.15K
--------------------------

Temperature         ... 298.15 K
Pressure            ... 1.00 atm
Total Mass          ... 113.18 AMU

Throughout the following assumptions are being made:
  (1) The electronic state is orbitally nondegenerate
  (2) There are no thermally accessible electronically excited states
  (3) Hindered rotations indicated by low frequency modes are not
      treated as such but are treated as vibrations and this may
      cause some error
  (4) All equations used are the standard statistical mechanics
      equations for an ideal gas
  (5) All vibrations are strictly harmonic

freq.     116.28  E(vib)   ...       0.44
freq.     155.89  E(vib)   ...       0.40
freq.     198.69  E(vib)   ...       0.35
freq.     222.34  E(vib)   ...       0.33
freq.     272.98  E(vib)   ...       0.29
freq.     306.48  E(vib)   ...       0.26
freq.     319.05  E(vib)   ...       0.25
freq.     426.36  E(vib)   ...       0.18
freq.     460.47  E(vib)   ...       0.16
freq.     477.33  E(vib)   ...       0.15
freq.     530.61  E(vib)   ...       0.13
freq.     625.28  E(vib)   ...       0.09
freq.     807.05  E(vib)   ...       0.05
freq.     884.55  E(vib)   ...       0.04
freq.     917.81  E(vib)   ...       0.03
freq.     943.12  E(vib)   ...       0.03
freq.    1010.91  E(vib)   ...       0.02
freq.    1044.59  E(vib)   ...       0.02
freq.    1071.18  E(vib)   ...       0.02
freq.    1125.65  E(vib)   ...       0.01
freq.    1128.26  E(vib)   ...       0.01
freq.    1139.35  E(vib)   ...       0.01
freq.    1142.06  E(vib)   ...       0.01
freq.    1162.49  E(vib)   ...       0.01
freq.    1206.30  E(vib)   ...       0.01
freq.    1237.24  E(vib)   ...       0.01
freq.    1275.80  E(vib)   ...       0.01
freq.    1282.89  E(vib)   ...       0.01
freq.    1339.58  E(vib)   ...       0.01
freq.    1353.90  E(vib)   ...       0.01
freq.    1405.61  E(vib)   ...       0.00
freq.    1417.63  E(vib)   ...       0.00
freq.    1428.76  E(vib)   ...       0.00
freq.    1445.74  E(vib)   ...       0.00
freq.    1446.25  E(vib)   ...       0.00
freq.    1449.31  E(vib)   ...       0.00
freq.    1450.10  E(vib)   ...       0.00
freq.    1458.15  E(vib)   ...       0.00
freq.    1464.92  E(vib)   ...       0.00
freq.    1466.06  E(vib)   ...       0.00
freq.    1475.93  E(vib)   ...       0.00
freq.    1489.37  E(vib)   ...       0.00
freq.    1588.56  E(vib)   ...       0.00
freq.    1798.76  E(vib)   ...       0.00
freq.    3078.87  E(vib)   ...       0.00
freq.    3079.90  E(vib)   ...       0.00
freq.    3088.78  E(vib)   ...       0.00
freq.    3091.54  E(vib)   ...       0.00
freq.    3103.75  E(vib)   ...       0.00
freq.    3167.53  E(vib)   ...       0.00
freq.    3168.61  E(vib)   ...       0.00
freq.    3182.20  E(vib)   ...       0.00
freq.    3182.47  E(vib)   ...       0.00
freq.    3183.21  E(vib)   ...       0.00
freq.    3217.76  E(vib)   ...       0.00
freq.    3217.78  E(vib)   ...       0.00
freq.    3240.46  E(vib)   ...       0.00

------------
INNER ENERGY
------------

The inner energy is: U= E(el) + E(ZPE) + E(vib) + E(rot) + E(trans)
    E(el)   - is the total energy from the electronic structure calculation
              = E(kin-el) + E(nuc-el) + E(el-el) + E(nuc-nuc)
    E(ZPE)  - the the zero temperature vibrational energy from the frequency calculation
    E(vib)  - the the finite temperature correction to E(ZPE) due to population
              of excited vibrational states
    E(rot)  - is the rotational thermal energy
    E(trans)- is the translational thermal energy

Summary of contributions to the inner energy U:
Electronic energy                ...   -345.50844026 Eh
Zero point energy                ...      0.19585972 Eh     122.90 kcal/mol
Thermal vibrational correction   ...      0.00540311 Eh       3.39 kcal/mol
Thermal rotational correction    ...      0.00141627 Eh       0.89 kcal/mol
Thermal translational correction ...      0.00141627 Eh       0.89 kcal/mol
-----------------------------------------------------------------------
Total thermal energy                   -345.30434489 Eh

Summary of corrections to the electronic energy:
(perhaps to be used in another calculation)
Total thermal correction                  0.00823565 Eh       5.17 kcal/mol
Non-thermal (ZPE) correction              0.19585972 Eh     122.90 kcal/mol
-----------------------------------------------------------------------
Total correction                          0.20409537 Eh     128.07 kcal/mol

--------
ENTHALPY
--------

The enthalpy is H = U + kB*T
                kB is Boltzmann's constant
Total free energy                 ...   -345.30434489 Eh
Thermal Enthalpy correction       ...      0.00094421 Eh       0.59 kcal/mol
-----------------------------------------------------------------------
Total Enthalpy                    ...   -345.30340068 Eh

Note: Rotational entropy computed according to Herzberg
Infrared and Raman Spectra, Chapter V,1, Van Nostrand Reinhold, 1945
Point Group:  Cs, Symmetry Number:   1
Rotational constants in cm-1:     0.107501     0.059056     0.040189

Vibrational entropy computed according to the QRRHO of S. Grimme
Chem.Eur.J. 2012 18 9955

-------
ENTROPY
-------

The entropy contributions are T*S = T*(S(el)+S(vib)+S(rot)+S(trans))
     S(el)   - electronic entropy
     S(vib)  - vibrational entropy
     S(rot)  - rotational entropy
     S(trans)- translational entropy
The entropies will be listed as multiplied by the temperature to get
units of energy

Electronic entropy                ...      0.00000000 Eh      0.00 kcal/mol
Vibrational entropy               ...      0.00891892 Eh      5.60 kcal/mol
Rotational entropy                ...      0.01341674 Eh      8.42 kcal/mol
Translational entropy             ...      0.01904664 Eh     11.95 kcal/mol
-----------------------------------------------------------------------
Final entropy term                ...      0.04138230 Eh     25.97 kcal/mol

In case the symmetry of your molecule has not been determined correctly
or in case you have a reason to use a different symmetry number we print
out the resulting rotational entropy values for sn=1,12 :
 --------------------------------------------------------
|  sn= 1 | S(rot)=       0.01341674 Eh      8.42 kcal/mol|
|  sn= 2 | S(rot)=       0.01276228 Eh      8.01 kcal/mol|
|  sn= 3 | S(rot)=       0.01237945 Eh      7.77 kcal/mol|
|  sn= 4 | S(rot)=       0.01210783 Eh      7.60 kcal/mol|
|  sn= 5 | S(rot)=       0.01189714 Eh      7.47 kcal/mol|
|  sn= 6 | S(rot)=       0.01172500 Eh      7.36 kcal/mol|
|  sn= 7 | S(rot)=       0.01157945 Eh      7.27 kcal/mol|
|  sn= 8 | S(rot)=       0.01145337 Eh      7.19 kcal/mol|
|  sn= 9 | S(rot)=       0.01134216 Eh      7.12 kcal/mol|
|  sn=10 | S(rot)=       0.01124268 Eh      7.05 kcal/mol|
|  sn=11 | S(rot)=       0.01115269 Eh      7.00 kcal/mol|

                             ****ORCA TERMINATED NORMALLY****
TOTAL RUN TIME: 0 days 0 hours 7 minutes 37 seconds 75 msec
