                         Program Version 5.0.4 -  RELEASE  -
|  1> # ORCA 5.0.4 - 10+.inp # write input file
|  2> # Basic Mode
|  3> #
|  4> ! Freq wB97X Def2-SVP D4 SlowConv TightSCF DEFGRID2 Def2/J RIJCOSX
|  5>
|  6>
|  7>
|  8> %maxcore 4500
|  9>
| 10> %geom
| 11> Maxiter 150
| 12> END
| 13>
| 14> * xyzfile 1 1 10+.xyz
| 15>
| 16>                          ****END OF INPUT****

CARTESIAN COORDINATES (ANGSTROEM)
---------------------------------
  C     -0.067683    1.112356    1.248474
  C     -0.068945   -0.959562    0.000000
  C     -0.067683    1.112356   -1.248474
  C      0.561895    1.706088   -0.000000
  H     -1.105754    1.460156    1.383121
  H     -0.071680   -2.054425   -0.000000
  H      0.501110    1.392500   -2.146431
  H      1.644471    1.501677   -0.000000
  N     -0.068599   -0.349025    1.164092
  N     -0.068601   -0.349025   -1.164092
  H     -1.105754    1.460157   -1.383122
  H      0.428817    2.796426    0.000000
  H      0.501110    1.392501    2.146431
  C     -0.109217   -1.099342    2.410388
  H     -0.144312   -2.175028    2.196723
  H      0.785775   -0.875494    3.009112
  H     -1.004184   -0.816030    2.983849
  C     -0.109217   -1.099342   -2.410387
  H      0.785776   -0.875495   -3.009110
  H     -0.144315   -2.175028   -2.196723
  H     -1.004183   -0.816028   -2.983850

 Total Charge           Charge          ....    1
 Multiplicity           Mult            ....    1
 Number of Electrons    NEL             ....   62
 Basis Dimension        Dim             ....  177

ORBITAL ENERGIES
----------------

  NO   OCC          E(Eh)            E(eV)
   0   2.0000     -14.638053      -398.3217
   1   2.0000     -14.638051      -398.3216
   2   2.0000     -10.556532      -287.2579
   3   2.0000     -10.477459      -285.1061
   4   2.0000     -10.477444      -285.1057
   5   2.0000     -10.470022      -284.9038
   6   2.0000     -10.470009      -284.9034
   7   2.0000     -10.439251      -284.0665
   8   2.0000      -1.320745       -35.9393
   9   2.0000      -1.242647       -33.8141
  10   2.0000      -1.099971       -29.9317
  11   2.0000      -1.042589       -28.3703
  12   2.0000      -1.009358       -27.4660
  13   2.0000      -0.958654       -26.0863
  14   2.0000      -0.945140       -25.7186
  15   2.0000      -0.837098       -22.7786
  16   2.0000      -0.811984       -22.0952
  17   2.0000      -0.805064       -21.9069
  18   2.0000      -0.778443       -21.1825
  19   2.0000      -0.746340       -20.3089
  20   2.0000      -0.730719       -19.8839
  21   2.0000      -0.721305       -19.6277
  22   2.0000      -0.717517       -19.5246
  23   2.0000      -0.682552       -18.5732
  24   2.0000      -0.677021       -18.4227
  25   2.0000      -0.668366       -18.1872
  26   2.0000      -0.646148       -17.5826
  27   2.0000      -0.628173       -17.0935
  28   2.0000      -0.620506       -16.8848
  29   2.0000      -0.603998       -16.4356
  30   2.0000      -0.511617       -13.9218
  31   0.0000      -0.094804        -2.5798
  32   0.0000      -0.019456        -0.5294
  33   0.0000       0.007844         0.2134
  34   0.0000       0.014283         0.3887
  35   0.0000       0.038798         1.0557

MULLIKEN ATOMIC CHARGES
-----------------------
   0 C :    0.100756
   1 C :    0.239856
   2 C :    0.100758
   3 C :   -0.094961
   4 H :    0.087129
   5 H :    0.098946
   6 H :    0.085178
   7 H :    0.078436
   8 N :   -0.313588
   9 N :   -0.313587
  10 H :    0.087128
  11 H :    0.096290
  12 H :    0.085177
  13 C :    0.064085
  14 H :    0.079613
  15 H :    0.094612
  16 H :    0.092932
  17 C :    0.064086
  18 H :    0.094611
  19 H :    0.079613
  20 H :    0.092932
Sum of atomic charges:    1.0000000

LOEWDIN ATOMIC CHARGES
----------------------
   0 C :    0.053767
   1 C :    0.160820
   2 C :    0.053767
   3 C :   -0.040394
   4 H :    0.045251
   5 H :    0.057714
   6 H :    0.051065
   7 H :    0.046806
   8 N :    0.013195
   9 N :    0.013196
  10 H :    0.045251
  11 H :    0.062439
  12 H :    0.051066
  13 C :    0.049823
  14 H :    0.045973
  15 H :    0.048151
  16 H :    0.049081
  17 C :    0.049823
  18 H :    0.048151
  19 H :    0.045973
  20 H :    0.049082

  Mayer bond orders larger than 0.100000
B(  0-C ,  3-C ) :   1.0669 B(  0-C ,  4-H ) :   0.9573 B(  0-C ,  8-N ) :   0.8932
B(  0-C , 12-H ) :   0.9514 B(  1-C ,  5-H ) :   0.9625 B(  1-C ,  8-N ) :   1.4300
B(  1-C ,  9-N ) :   1.4300 B(  2-C ,  3-C ) :   1.0669 B(  2-C ,  6-H ) :   0.9514
B(  2-C ,  9-N ) :   0.8932 B(  2-C , 10-H ) :   0.9573 B(  3-C ,  7-H ) :   0.9484
B(  3-C , 11-H ) :   0.9431 B(  8-N , 13-C ) :   0.9118 B(  9-N , 17-C ) :   0.9118
B( 13-C , 14-H ) :   0.9705 B( 13-C , 15-H ) :   0.9721 B( 13-C , 16-H ) :   0.9708
B( 17-C , 18-H ) :   0.9721 B( 17-C , 19-H ) :   0.9705 B( 17-C , 20-H ) :   0.9708

Dispersion correction           -0.002463552
FINAL SINGLE POINT ENERGY      -345.428049048648

DIPOLE MOMENT
-------------
                                X             Y             Z
Electronic contribution:     -0.16195      -0.64287       0.00000
Nuclear contribution   :      0.08173       0.22899      -0.00000
                        -----------------------------------------
Total Dipole Moment    :     -0.08022      -0.41388       0.00000
                        -----------------------------------------
Magnitude (a.u.)       :      0.42158
Magnitude (Debye)      :      1.07158

Dispersion correction in the Hessian             ... Starting D4

VIBRATIONAL FREQUENCIES
-----------------------

Scaling factor for frequencies =  1.000000000  (already applied!)

   0:         0.00 cm**-1
   1:         0.00 cm**-1
   2:         0.00 cm**-1
   3:         0.00 cm**-1
   4:         0.00 cm**-1
   5:         0.00 cm**-1
   6:       113.91 cm**-1
   7:       158.96 cm**-1
   8:       198.01 cm**-1
   9:       219.18 cm**-1
  10:       274.49 cm**-1
  11:       308.67 cm**-1
  12:       319.09 cm**-1
  13:       425.96 cm**-1
  14:       468.03 cm**-1
  15:       474.31 cm**-1
  16:       534.32 cm**-1
  17:       626.24 cm**-1
  18:       809.64 cm**-1
  19:       885.61 cm**-1
  20:       917.85 cm**-1
  21:       944.42 cm**-1
  22:      1006.88 cm**-1
  23:      1048.23 cm**-1
  24:      1077.64 cm**-1
  25:      1121.94 cm**-1
  26:      1128.47 cm**-1
  27:      1141.79 cm**-1
  28:      1144.27 cm**-1
  29:      1165.33 cm**-1
  30:      1209.68 cm**-1
  31:      1245.23 cm**-1
  32:      1282.39 cm**-1
  33:      1289.67 cm**-1
  34:      1344.70 cm**-1
  35:      1358.37 cm**-1
  36:      1413.55 cm**-1
  37:      1415.39 cm**-1
  38:      1432.82 cm**-1
  39:      1457.17 cm**-1
  40:      1460.14 cm**-1
  41:      1462.13 cm**-1
  42:      1463.79 cm**-1
  43:      1465.88 cm**-1
  44:      1478.87 cm**-1
  45:      1483.19 cm**-1
  46:      1491.46 cm**-1
  47:      1498.44 cm**-1
  48:      1591.77 cm**-1
  49:      1815.25 cm**-1
  50:      3080.51 cm**-1
  51:      3080.87 cm**-1
  52:      3089.38 cm**-1
  53:      3091.81 cm**-1
  54:      3105.31 cm**-1
  55:      3169.22 cm**-1
  56:      3170.41 cm**-1
  57:      3185.66 cm**-1
  58:      3186.99 cm**-1
  59:      3187.11 cm**-1
  60:      3214.62 cm**-1
  61:      3214.66 cm**-1
  62:      3236.42 cm**-1

IR SPECTRUM
-----------

 Mode   freq       eps      Int      T**2         TX        TY        TZ
       cm**-1   L/(mol*cm) km/mol    a.u.
----------------------------------------------------------------------------
  6:    113.91   0.000003    0.02  0.000009  ( 0.000000  0.000000 -0.003007)
  7:    158.96   0.000681    3.44  0.001337  (-0.036490 -0.002347 -0.000001)
  8:    198.01   0.000024    0.12  0.000038  ( 0.000002  0.000000 -0.006202)
  9:    219.18   0.000171    0.86  0.000244  (-0.015588 -0.000783 -0.000000)
 10:    274.49   0.000025    0.13  0.000029  ( 0.005304  0.000911 -0.000000)
 11:    308.67   0.000000    0.00  0.000000  (-0.000000  0.000000 -0.000104)
 12:    319.09   0.000011    0.06  0.000011  ( 0.001880  0.002672  0.000000)
 13:    425.96   0.000007    0.04  0.000005  ( 0.000000  0.000000  0.002265)
 14:    468.03   0.002877   14.54  0.001918  ( 0.043795 -0.000545 -0.000001)
 15:    474.31   0.000767    3.88  0.000505  (-0.000001  0.000000 -0.022465)
 16:    534.32   0.001511    7.64  0.000883  ( 0.029000  0.006441  0.000000)
 17:    626.24   0.000076    0.38  0.000038  (-0.003650  0.004960 -0.000000)
 18:    809.64   0.000132    0.67  0.000051  (-0.004866 -0.005219 -0.000000)
 19:    885.61   0.000402    2.03  0.000142  (-0.000000 -0.000000  0.011897)
 20:    917.85   0.000058    0.29  0.000020  ( 0.000000 -0.000000  0.004440)
 21:    944.42   0.000200    1.01  0.000066  (-0.006854  0.004371  0.000000)
 22:   1006.88   0.000318    1.61  0.000099  (-0.009048  0.004081  0.000000)
 23:   1048.23   0.003472   17.55  0.001034  ( 0.007434 -0.031279  0.000000)
 24:   1077.64   0.000401    2.03  0.000116  ( 0.000000  0.000000 -0.010783)
 25:   1121.94   0.000815    4.12  0.000227  ( 0.002174  0.014898  0.000000)
 26:   1128.47   0.000999    5.05  0.000276  (-0.015427 -0.006187  0.000000)
 27:   1141.79   0.001445    7.30  0.000395  (-0.000000  0.000000 -0.019872)
 28:   1144.27   0.000043    0.22  0.000012  (-0.000001  0.000000  0.003433)
 29:   1165.33   0.000259    1.31  0.000069  (-0.008090 -0.002005 -0.000000)
 30:   1209.68   0.010150   51.30  0.002618  (-0.000000 -0.000000  0.051171)
 31:   1245.23   0.005941   30.02  0.001489  (-0.000000 -0.000000 -0.038585)
 32:   1282.39   0.000243    1.23  0.000059  (-0.000001 -0.000001  0.007692)
 33:   1289.67   0.006010   30.37  0.001454  ( 0.017421  0.033924  0.000001)
 34:   1344.70   0.002024   10.23  0.000470  ( 0.005199 -0.021040  0.000001)
 35:   1358.37   0.005019   25.37  0.001153  ( 0.000000 -0.000000 -0.033958)
 36:   1413.55   0.003839   19.40  0.000847  (-0.000000 -0.000000  0.029111)
 37:   1415.39   0.001510    7.63  0.000333  (-0.000000 -0.000000 -0.018249)
 38:   1432.82   0.003307   16.71  0.000720  ( 0.004237 -0.026501  0.000001)
 39:   1457.17   0.006985   35.30  0.001496  ( 0.000000 -0.000000 -0.038676)
 40:   1460.14   0.006376   32.22  0.001363  ( 0.035915  0.008527  0.000001)
 41:   1462.13   0.000336    1.70  0.000072  (-0.000001  0.000001 -0.008467)
 42:   1463.79   0.004101   20.73  0.000874  ( 0.029012 -0.005714 -0.000001)
 43:   1465.88   0.000863    4.36  0.000184  ( 0.000208 -0.013551  0.000002)
 44:   1478.87   0.000054    0.28  0.000011  ( 0.000000  0.000000  0.003391)
 45:   1483.19   0.004830   24.41  0.001016  ( 0.005701  0.031364  0.000001)
 46:   1491.46   0.000053    0.27  0.000011  ( 0.000370  0.003310  0.000000)
 47:   1498.44   0.001093    5.52  0.000228  (-0.000000 -0.000000  0.015089)
 48:   1591.77   0.006307   31.87  0.001237  (-0.004495  0.034876  0.000000)
 49:   1815.25   0.116896  590.74  0.020096  ( 0.000000 -0.000000  0.141760)
 50:   3080.51   0.003254   16.45  0.000330  ( 0.000000  0.000029  0.018157)
 51:   3080.87   0.000699    3.53  0.000071  (-0.000106 -0.008411  0.000063)
 52:   3089.38   0.001375    6.95  0.000139  ( 0.000003 -0.000003  0.011787)
 53:   3091.81   0.001236    6.25  0.000125  (-0.007924  0.007874  0.000005)
 54:   3105.31   0.000847    4.28  0.000085  ( 0.009222  0.000237  0.000000)
 55:   3169.22   0.000130    0.66  0.000013  ( 0.000001 -0.000000  0.003575)
 56:   3170.41   0.000343    1.73  0.000034  ( 0.005768  0.000679 -0.000001)
 57:   3185.66   0.000244    1.24  0.000024  (-0.004887  0.000260  0.000000)
 58:   3186.99   0.000004    0.02  0.000000  (-0.000074 -0.000004  0.000600)
 59:   3187.11   0.000231    1.17  0.000023  ( 0.004751  0.000256  0.000010)
 60:   3214.62   0.000265    1.34  0.000026  ( 0.000483  0.005054  0.000003)
 61:   3214.66   0.000127    0.64  0.000012  (-0.000000 -0.000004  0.003505)
 62:   3236.42   0.000193    0.98  0.000019  (-0.000602  0.004276 -0.000000)

--------------------------
THERMOCHEMISTRY AT 298.15K
--------------------------

Temperature         ... 298.15 K
Pressure            ... 1.00 atm
Total Mass          ... 113.18 AMU

Throughout the following assumptions are being made:
  (1) The electronic state is orbitally nondegenerate
  (2) There are no thermally accessible electronically excited states
  (3) Hindered rotations indicated by low frequency modes are not
      treated as such but are treated as vibrations and this may
      cause some error
  (4) All equations used are the standard statistical mechanics
      equations for an ideal gas
  (5) All vibrations are strictly harmonic

freq.     113.91  E(vib)   ...       0.44
freq.     158.96  E(vib)   ...       0.39
freq.     198.01  E(vib)   ...       0.35
freq.     219.18  E(vib)   ...       0.33
freq.     274.49  E(vib)   ...       0.28
freq.     308.67  E(vib)   ...       0.26
freq.     319.09  E(vib)   ...       0.25
freq.     425.96  E(vib)   ...       0.18
freq.     468.03  E(vib)   ...       0.16
freq.     474.31  E(vib)   ...       0.15
freq.     534.32  E(vib)   ...       0.13
freq.     626.24  E(vib)   ...       0.09
freq.     809.64  E(vib)   ...       0.05
freq.     885.61  E(vib)   ...       0.04
freq.     917.85  E(vib)   ...       0.03
freq.     944.42  E(vib)   ...       0.03
freq.    1006.88  E(vib)   ...       0.02
freq.    1048.23  E(vib)   ...       0.02
freq.    1077.64  E(vib)   ...       0.02
freq.    1121.94  E(vib)   ...       0.01
freq.    1128.47  E(vib)   ...       0.01
freq.    1141.79  E(vib)   ...       0.01
freq.    1144.27  E(vib)   ...       0.01
freq.    1165.33  E(vib)   ...       0.01
freq.    1209.68  E(vib)   ...       0.01
freq.    1245.23  E(vib)   ...       0.01
freq.    1282.39  E(vib)   ...       0.01
freq.    1289.67  E(vib)   ...       0.01
freq.    1344.70  E(vib)   ...       0.01
freq.    1358.37  E(vib)   ...       0.01
freq.    1413.55  E(vib)   ...       0.00
freq.    1415.39  E(vib)   ...       0.00
freq.    1432.82  E(vib)   ...       0.00
freq.    1457.17  E(vib)   ...       0.00
freq.    1460.14  E(vib)   ...       0.00
freq.    1462.13  E(vib)   ...       0.00
freq.    1463.79  E(vib)   ...       0.00
freq.    1465.88  E(vib)   ...       0.00
freq.    1478.87  E(vib)   ...       0.00
freq.    1483.19  E(vib)   ...       0.00
freq.    1491.46  E(vib)   ...       0.00
freq.    1498.44  E(vib)   ...       0.00
freq.    1591.77  E(vib)   ...       0.00
freq.    1815.25  E(vib)   ...       0.00
freq.    3080.51  E(vib)   ...       0.00
freq.    3080.87  E(vib)   ...       0.00
freq.    3089.38  E(vib)   ...       0.00
freq.    3091.81  E(vib)   ...       0.00
freq.    3105.31  E(vib)   ...       0.00
freq.    3169.22  E(vib)   ...       0.00
freq.    3170.41  E(vib)   ...       0.00
freq.    3185.66  E(vib)   ...       0.00
freq.    3186.99  E(vib)   ...       0.00
freq.    3187.11  E(vib)   ...       0.00
freq.    3214.62  E(vib)   ...       0.00
freq.    3214.66  E(vib)   ...       0.00
freq.    3236.42  E(vib)   ...       0.00

------------
INNER ENERGY
------------

The inner energy is: U= E(el) + E(ZPE) + E(vib) + E(rot) + E(trans)
    E(el)   - is the total energy from the electronic structure calculation
              = E(kin-el) + E(nuc-el) + E(el-el) + E(nuc-nuc)
    E(ZPE)  - the the zero temperature vibrational energy from the frequency calculation
    E(vib)  - the the finite temperature correction to E(ZPE) due to population
              of excited vibrational states
    E(rot)  - is the rotational thermal energy
    E(trans)- is the translational thermal energy

Summary of contributions to the inner energy U:
Electronic energy                ...   -345.42804905 Eh
Zero point energy                ...      0.19634638 Eh     123.21 kcal/mol
Thermal vibrational correction   ...      0.00539003 Eh       3.38 kcal/mol
Thermal rotational correction    ...      0.00141627 Eh       0.89 kcal/mol
Thermal translational correction ...      0.00141627 Eh       0.89 kcal/mol
-----------------------------------------------------------------------
Total thermal energy                   -345.22348009 Eh

Summary of corrections to the electronic energy:
(perhaps to be used in another calculation)
Total thermal correction                  0.00822257 Eh       5.16 kcal/mol
Non-thermal (ZPE) correction              0.19634638 Eh     123.21 kcal/mol
-----------------------------------------------------------------------
Total correction                          0.20456895 Eh     128.37 kcal/mol

--------
ENTHALPY
--------

The enthalpy is H = U + kB*T
                kB is Boltzmann's constant
Total free energy                 ...   -345.22348009 Eh
Thermal Enthalpy correction       ...      0.00094421 Eh       0.59 kcal/mol
-----------------------------------------------------------------------
Total Enthalpy                    ...   -345.22253589 Eh

Note: Rotational entropy computed according to Herzberg
Infrared and Raman Spectra, Chapter V,1, Van Nostrand Reinhold, 1945
Point Group:  Cs, Symmetry Number:   1
Rotational constants in cm-1:     0.107501     0.059056     0.040189

Vibrational entropy computed according to the QRRHO of S. Grimme
Chem.Eur.J. 2012 18 9955

-------
ENTROPY
-------

The entropy contributions are T*S = T*(S(el)+S(vib)+S(rot)+S(trans))
     S(el)   - electronic entropy
     S(vib)  - vibrational entropy
     S(rot)  - rotational entropy
     S(trans)- translational entropy
The entropies will be listed as multiplied by the temperature to get
units of energy

Electronic entropy                ...      0.00000000 Eh      0.00 kcal/mol
Vibrational entropy               ...      0.00890092 Eh      5.59 kcal/mol
Rotational entropy                ...      0.01341674 Eh      8.42 kcal/mol
Translational entropy             ...      0.01904664 Eh     11.95 kcal/mol
-----------------------------------------------------------------------
Final entropy term                ...      0.04136430 Eh     25.96 kcal/mol

In case the symmetry of your molecule has not been determined correctly
or in case you have a reason to use a different symmetry number we print
out the resulting rotational entropy values for sn=1,12 :
 --------------------------------------------------------
|  sn= 1 | S(rot)=       0.01341674 Eh      8.42 kcal/mol|
|  sn= 2 | S(rot)=       0.01276228 Eh      8.01 kcal/mol|
|  sn= 3 | S(rot)=       0.01237945 Eh      7.77 kcal/mol|
|  sn= 4 | S(rot)=       0.01210783 Eh      7.60 kcal/mol|
|  sn= 5 | S(rot)=       0.01189714 Eh      7.47 kcal/mol|
|  sn= 6 | S(rot)=       0.01172500 Eh      7.36 kcal/mol|
|  sn= 7 | S(rot)=       0.01157945 Eh      7.27 kcal/mol|
|  sn= 8 | S(rot)=       0.01145337 Eh      7.19 kcal/mol|
|  sn= 9 | S(rot)=       0.01134216 Eh      7.12 kcal/mol|
|  sn=10 | S(rot)=       0.01124268 Eh      7.05 kcal/mol|
|  sn=11 | S(rot)=       0.01115269 Eh      7.00 kcal/mol|

                             ****ORCA TERMINATED NORMALLY****
TOTAL RUN TIME: 0 days 0 hours 16 minutes 29 seconds 715 msec
