                         Program Version 5.0.4 -  RELEASE  -
|  1> ! SP wB97X D4 def2-SVP def2/J defgrid2
|  2> %maxcore 3000
|  3> %PAL NPROCS 4 END
|  4> * xyz 0 1
|  5> C -0.1932 1.0513 1.2375
|  6> C 0.0775 -1.1004 0.0
|  7> C -0.1932 1.0513 -1.2375
|  8> C 0.3557 1.7352 -0.0
|  9> H -1.2668 1.2842 1.3688
| 10> H 0.3244 1.4124 -2.1408
| 11> H 1.4564 1.6699 -0.0
| 12> N -0.0051 -0.3945 1.1414
| 13> N -0.0051 -0.3945 -1.1414
| 14> H -1.2668 1.2842 -1.3688
| 15> H 0.0866 2.8016 -0.0
| 16> H 0.3244 1.4124 2.1408
| 17> C 0.0037 -1.0917 2.4111
| 18> H 0.1013 -2.1683 2.2253
| 19> H 0.8432 -0.757 3.0449
| 20> H -0.9321 -0.9097 2.9682
| 21> C 0.0037 -1.0917 -2.4111
| 22> H 0.8432 -0.757 -3.0449
| 23> H 0.1013 -2.1683 -2.2253
| 24> H -0.9321 -0.9097 -2.9682
| 25> **                         ****END OF INPUT****

CARTESIAN COORDINATES (ANGSTROEM)
---------------------------------
  C     -0.193200    1.051300    1.237500
  C      0.077500   -1.100400    0.000000
  C     -0.193200    1.051300   -1.237500
  C      0.355700    1.735200   -0.000000
  H     -1.266800    1.284200    1.368800
  H      0.324400    1.412400   -2.140800
  H      1.456400    1.669900   -0.000000
  N     -0.005100   -0.394500    1.141400
  N     -0.005100   -0.394500   -1.141400
  H     -1.266800    1.284200   -1.368800
  H      0.086600    2.801600   -0.000000
  H      0.324400    1.412400    2.140800
  C      0.003700   -1.091700    2.411100
  H      0.101300   -2.168300    2.225300
  H      0.843200   -0.757000    3.044900
  H     -0.932100   -0.909700    2.968200
  C      0.003700   -1.091700   -2.411100
  H      0.843200   -0.757000   -3.044900
  H      0.101300   -2.168300   -2.225300
  H     -0.932100   -0.909700   -2.968200

 Total Charge           Charge          ....    0
 Multiplicity           Mult            ....    1
 Number of Electrons    NEL             ....   62
 Basis Dimension        Dim             ....  172

ORBITAL ENERGIES
----------------

  NO   OCC          E(Eh)            E(eV)
   0   2.0000     -14.416207      -392.2849
   1   2.0000     -14.416200      -392.2847
   2   2.0000     -10.303490      -280.3722
   3   2.0000     -10.303487      -280.3721
   4   2.0000     -10.287110      -279.9265
   5   2.0000     -10.287087      -279.9259
   6   2.0000     -10.279537      -279.7204
   7   2.0000     -10.265720      -279.3445
   8   2.0000      -1.091717       -29.7071
   9   2.0000      -1.024927       -27.8897
  10   2.0000      -0.916777       -24.9468
  11   2.0000      -0.835858       -22.7449
  12   2.0000      -0.822965       -22.3940
  13   2.0000      -0.749089       -20.3837
  14   2.0000      -0.746864       -20.3232
  15   2.0000      -0.638456       -17.3733
  16   2.0000      -0.608557       -16.5597
  17   2.0000      -0.606085       -16.4924
  18   2.0000      -0.580699       -15.8016
  19   2.0000      -0.563944       -15.3457
  20   2.0000      -0.538438       -14.6516
  21   2.0000      -0.532635       -14.4937
  22   2.0000      -0.516145       -14.0450
  23   2.0000      -0.502174       -13.6649
  24   2.0000      -0.477349       -12.9893
  25   2.0000      -0.466498       -12.6941
  26   2.0000      -0.456680       -12.4269
  27   2.0000      -0.444076       -12.0839
  28   2.0000      -0.404389       -11.0040
  29   2.0000      -0.309521        -8.4225
  30   2.0000      -0.279224        -7.5981
  31   0.0000       0.127762         3.4766
  32   0.0000       0.143100         3.8940
  33   0.0000       0.162137         4.4120
  34   0.0000       0.182721         4.9721
  35   0.0000       0.192260         5.2317

MULLIKEN ATOMIC CHARGES
-----------------------
   0 C :    0.121585
   1 C :   -0.088299
   2 C :    0.121587
   3 C :   -0.057386
   4 H :    0.023923
   5 H :    0.022913
   6 H :    0.039790
   7 N :   -0.341831
   8 N :   -0.341833
   9 H :    0.023923
  10 H :    0.032915
  11 H :    0.022913
  12 C :    0.122701
  13 H :    0.050409
  14 H :    0.020350
  15 H :    0.016442
  16 C :    0.122701
  17 H :    0.020349
  18 H :    0.050409
  19 H :    0.016441
Sum of atomic charges:   -0.0000000

LOEWDIN ATOMIC CHARGES
----------------------
   0 C :    0.030682
   1 C :   -0.209820
   2 C :    0.030682
   3 C :   -0.048406
   4 H :    0.016997
   5 H :    0.022365
   6 H :    0.031549
   7 N :   -0.059901
   8 N :   -0.059901
   9 H :    0.016997
  10 H :    0.032541
  11 H :    0.022365
  12 C :    0.026565
  13 H :    0.033112
  14 H :    0.013636
  15 H :    0.013613
  16 C :    0.026565
  17 H :    0.013636
  18 H :    0.033112
  19 H :    0.013613

  Mayer bond orders larger than 0.100000
B(  0-C ,  3-C ) :   1.0712 B(  0-C ,  4-H ) :   0.9538 B(  0-C ,  7-N ) :   0.9281
B(  0-C , 11-H ) :   0.9531 B(  1-C ,  7-N ) :   1.2689 B(  1-C ,  8-N ) :   1.2689
B(  2-C ,  3-C ) :   1.0712 B(  2-C ,  5-H ) :   0.9531 B(  2-C ,  8-N ) :   0.9281
B(  2-C ,  9-H ) :   0.9538 B(  3-C ,  6-H ) :   0.9492 B(  3-C , 10-H ) :   0.9502
B(  7-N , 12-C ) :   0.9806 B(  8-N , 16-C ) :   0.9806 B( 12-C , 13-H ) :   0.9708
B( 12-C , 14-H ) :   0.9751 B( 12-C , 15-H ) :   0.9731 B( 16-C , 17-H ) :   0.9751
B( 16-C , 18-H ) :   0.9708 B( 16-C , 19-H ) :   0.9731

Dispersion correction           -0.002578939
FINAL SINGLE POINT ENERGY      -344.982626544697

DIPOLE MOMENT
-------------
                                X             Y             Z
Electronic contribution:      0.17494      -1.12367       0.00000
Nuclear contribution   :     -0.31640       2.27419      -0.00000
                        -----------------------------------------
Total Dipole Moment    :     -0.14146       1.15053       0.00000
                        -----------------------------------------
Magnitude (a.u.)       :      1.15919
Magnitude (Debye)      :      2.94643

Rotational constants in cm-1:     0.111005     0.059431     0.040819
Rotational constants in MHz :  3327.853830  1781.709136  1223.719603

                             ****ORCA TERMINATED NORMALLY****
TOTAL RUN TIME: 0 days 0 hours 0 minutes 45 seconds 4 msec
