                         Program Version 5.0.4 -  RELEASE  -
|  1> ! SP wB97X D4 def2-SVP def2/J defgrid2
|  2> %maxcore 3000
|  3> %PAL NPROCS 4 END
|  4> * xyz 1 1
|  5> C 0.0 -0.0 0.663
|  6> N -0.0087 1.1934 0.1062
|  7> N 0.0087 -1.1934 0.1062
|  8> C 0.2265 1.4908 -1.3047
|  9> C -0.2265 -1.4908 -1.3047
| 10> H 0.7223 2.4688 -1.3572
| 11> H -0.7223 -2.4688 -1.3572
| 12> H 0.8954 0.749 -1.7532
| 13> H -0.8954 -0.749 -1.7532
| 14> H -0.7156 1.5438 -1.87
| 15> H 0.7156 -1.5438 -1.87
| 16> C -0.2387 2.3624 0.9533
| 17> C 0.2387 -2.3624 0.9533
| 18> H -0.3672 2.0549 1.9981
| 19> H 0.3672 -2.0549 1.9981
| 20> H 0.6163 3.0496 0.8754
| 21> H -0.6163 -3.0496 0.8754
| 22> H -1.1486 2.8835 0.6209
| 23> H 1.1486 -2.8835 0.6209
| 24> H 0.0 0.0 1.7583
| 25> **                         ****END OF INPUT****

CARTESIAN COORDINATES (ANGSTROEM)
---------------------------------
  C      0.000000   -0.000000    0.663000
  N     -0.008700    1.193400    0.106200
  N      0.008700   -1.193400    0.106200
  C      0.226500    1.490800   -1.304700
  C     -0.226500   -1.490800   -1.304700
  H      0.722300    2.468800   -1.357200
  H     -0.722300   -2.468800   -1.357200
  H      0.895400    0.749000   -1.753200
  H     -0.895400   -0.749000   -1.753200
  H     -0.715600    1.543800   -1.870000
  H      0.715600   -1.543800   -1.870000
  C     -0.238700    2.362400    0.953300
  C      0.238700   -2.362400    0.953300
  H     -0.367200    2.054900    1.998100
  H      0.367200   -2.054900    1.998100
  H      0.616300    3.049600    0.875400
  H     -0.616300   -3.049600    0.875400
  H     -1.148600    2.883500    0.620900
  H      1.148600   -2.883500    0.620900
  H      0.000000    0.000000    1.758300

 Total Charge           Charge          ....    1
 Multiplicity           Mult            ....    1
 Number of Electrons    NEL             ....   56
 Basis Dimension        Dim             ....  163

ORBITAL ENERGIES
----------------

  NO   OCC          E(Eh)            E(eV)
   0   2.0000     -14.644169      -398.4881
   1   2.0000     -14.644168      -398.4881
   2   2.0000     -10.560752      -287.3727
   3   2.0000     -10.475373      -285.0494
   4   2.0000     -10.475360      -285.0490
   5   2.0000     -10.471484      -284.9436
   6   2.0000     -10.471469      -284.9432
   7   2.0000      -1.313075       -35.7306
   8   2.0000      -1.248161       -33.9642
   9   2.0000      -1.056132       -28.7388
  10   2.0000      -1.030161       -28.0321
  11   2.0000      -1.013581       -27.5809
  12   2.0000      -0.963848       -26.2276
  13   2.0000      -0.868683       -23.6381
  14   2.0000      -0.812969       -22.1220
  15   2.0000      -0.808773       -22.0078
  16   2.0000      -0.785474       -21.3738
  17   2.0000      -0.746136       -20.3034
  18   2.0000      -0.735044       -20.0016
  19   2.0000      -0.706748       -19.2316
  20   2.0000      -0.692609       -18.8468
  21   2.0000      -0.684075       -18.6146
  22   2.0000      -0.673999       -18.3405
  23   2.0000      -0.672441       -18.2981
  24   2.0000      -0.664525       -18.0826
  25   2.0000      -0.642589       -17.4857
  26   2.0000      -0.627627       -17.0786
  27   2.0000      -0.514744       -14.0069
  28   0.0000      -0.100514        -2.7351
  29   0.0000      -0.022742        -0.6188
  30   0.0000       0.006329         0.1722
  31   0.0000       0.016127         0.4388
  32   0.0000       0.033135         0.9017

MULLIKEN ATOMIC CHARGES
-----------------------
   0 C :    0.219056
   1 N :   -0.302235
   2 N :   -0.302235
   3 C :    0.047066
   4 C :    0.047066
   5 H :    0.090252
   6 H :    0.090252
   7 H :    0.080475
   8 H :    0.080476
   9 H :    0.102348
  10 H :    0.102348
  11 C :    0.052897
  12 C :    0.052897
  13 H :    0.080735
  14 H :    0.080735
  15 H :    0.096445
  16 H :    0.096445
  17 H :    0.097046
  18 H :    0.097046
  19 H :    0.090886
Sum of atomic charges:    1.0000000

LOEWDIN ATOMIC CHARGES
----------------------
   0 C :    0.160291
   1 N :    0.012354
   2 N :    0.012354
   3 C :    0.041848
   4 C :    0.041848
   5 H :    0.053155
   6 H :    0.053155
   7 H :    0.044202
   8 H :    0.044202
   9 H :    0.047099
  10 H :    0.047099
  11 C :    0.051482
  12 C :    0.051482
  13 H :    0.044806
  14 H :    0.044806
  15 H :    0.047767
  16 H :    0.047767
  17 H :    0.049852
  18 H :    0.049852
  19 H :    0.054580

  Mayer bond orders larger than 0.100000
B(  0-C ,  1-N ) :   1.4465 B(  0-C ,  2-N ) :   1.4465 B(  0-C , 19-H ) :   0.9593
B(  1-N ,  3-C ) :   0.9089 B(  1-N , 11-C ) :   0.9092 B(  2-N ,  4-C ) :   0.9089
B(  2-N , 12-C ) :   0.9092 B(  3-C ,  5-H ) :   0.9657 B(  3-C ,  7-H ) :   0.9698
B(  3-C ,  9-H ) :   0.9698 B(  4-C ,  6-H ) :   0.9657 B(  4-C ,  8-H ) :   0.9698
B(  4-C , 10-H ) :   0.9698 B( 11-C , 13-H ) :   0.9696 B( 11-C , 15-H ) :   0.9718
B( 11-C , 17-H ) :   0.9713 B( 12-C , 14-H ) :   0.9696 B( 12-C , 16-H ) :   0.9718
B( 12-C , 18-H ) :   0.9713

Dispersion correction           -0.002068099
FINAL SINGLE POINT ENERGY      -307.330294868072

DIPOLE MOMENT
-------------
                                X             Y             Z
Electronic contribution:     -0.00000      -0.00000       1.41364
Nuclear contribution   :      0.00000       0.00000      -1.29117
                        -----------------------------------------
Total Dipole Moment    :     -0.00000      -0.00000       0.12247
                        -----------------------------------------
Magnitude (a.u.)       :      0.12247
Magnitude (Debye)      :      0.31129

Rotational constants in cm-1:     0.155294     0.056267     0.043387
Rotational constants in MHz :  4655.604008  1686.850987  1300.702455

                             ****ORCA TERMINATED NORMALLY****
TOTAL RUN TIME: 0 days 0 hours 0 minutes 30 seconds 192 msec
