                         Program Version 5.0.4 -  RELEASE  -
|  1> ! SP wB97X D4 def2-SVP def2/J defgrid2
|  2> %maxcore 3000
|  3> %PAL NPROCS 4 END
|  4> * xyz 1 1
|  5> C -0.0 0.6848 -0.6593
|  6> C -0.0 -0.6848 -0.6593
|  7> N -0.0 1.0801 0.6696
|  8> N 0.0 -1.0801 0.6696
|  9> C -0.0 0.0 1.4438
| 10> C -0.0 2.46 1.1346
| 11> C 0.0 -2.46 1.1346
| 12> H -0.8976 2.9725 0.764
| 13> H -0.8976 -2.9725 0.764
| 14> H 0.8976 -2.9725 0.764
| 15> H 0.8976 2.9725 0.764
| 16> H -0.0 2.4651 2.2306
| 17> H 0.0 -2.4651 2.2306
| 18> H -0.0 0.0 2.5339
| 19> C 0.0 1.6683 -1.7769
| 20> C -0.0 -1.6683 -1.7769
| 21> H 0.8912 2.3136 -1.7372
| 22> H 0.8911 -2.3136 -1.7372
| 23> H -0.8912 -2.3136 -1.7372
| 24> H -0.8911 2.3136 -1.7372
| 25> H 0.0 1.1411 -2.7393
| 26> H -0.0 -1.1411 -2.7393
| 27> **                         ****END OF INPUT****

CARTESIAN COORDINATES (ANGSTROEM)
---------------------------------
  C     -0.000000    0.684800   -0.659300
  C     -0.000000   -0.684800   -0.659300
  N     -0.000000    1.080100    0.669600
  N      0.000000   -1.080100    0.669600
  C     -0.000000    0.000000    1.443800
  C     -0.000000    2.460000    1.134600
  C      0.000000   -2.460000    1.134600
  H     -0.897600    2.972500    0.764000
  H     -0.897600   -2.972500    0.764000
  H      0.897600   -2.972500    0.764000
  H      0.897600    2.972500    0.764000
  H     -0.000000    2.465100    2.230600
  H      0.000000   -2.465100    2.230600
  H     -0.000000    0.000000    2.533900
  C      0.000000    1.668300   -1.776900
  C     -0.000000   -1.668300   -1.776900
  H      0.891200    2.313600   -1.737200
  H      0.891100   -2.313600   -1.737200
  H     -0.891200   -2.313600   -1.737200
  H     -0.891100    2.313600   -1.737200
  H      0.000000    1.141100   -2.739300
  H     -0.000000   -1.141100   -2.739300

 Total Charge           Charge          ....    1
 Multiplicity           Mult            ....    1
 Number of Electrons    NEL             ....   68
 Basis Dimension        Dim             ....  191

ORBITAL ENERGIES
----------------

  NO   OCC          E(Eh)            E(eV)
   0   2.0000     -14.657071      -398.8392
   1   2.0000     -14.657053      -398.8387
   2   2.0000     -10.530886      -286.5600
   3   2.0000     -10.478553      -285.1359
   4   2.0000     -10.478055      -285.1224
   5   2.0000     -10.476801      -285.0883
   6   2.0000     -10.476781      -285.0877
   7   2.0000     -10.427603      -283.7495
   8   2.0000     -10.427551      -283.7481
   9   2.0000      -1.361033       -37.0356
  10   2.0000      -1.241153       -33.7735
  11   2.0000      -1.101049       -29.9611
  12   2.0000      -1.061019       -28.8718
  13   2.0000      -1.020436       -27.7675
  14   2.0000      -0.973023       -26.4773
  15   2.0000      -0.971116       -26.4254
  16   2.0000      -0.880546       -23.9609
  17   2.0000      -0.871602       -23.7175
  18   2.0000      -0.811840       -22.0913
  19   2.0000      -0.791913       -21.5490
  20   2.0000      -0.754613       -20.5341
  21   2.0000      -0.741607       -20.1802
  22   2.0000      -0.731780       -19.9128
  23   2.0000      -0.699185       -19.0258
  24   2.0000      -0.683751       -18.6058
  25   2.0000      -0.682344       -18.5675
  26   2.0000      -0.679159       -18.4808
  27   2.0000      -0.664403       -18.0793
  28   2.0000      -0.657135       -17.8816
  29   2.0000      -0.655164       -17.8279
  30   2.0000      -0.645048       -17.5527
  31   2.0000      -0.640567       -17.4307
  32   2.0000      -0.558704       -15.2031
  33   2.0000      -0.495180       -13.4745
  34   0.0000      -0.084875        -2.3096
  35   0.0000      -0.037218        -1.0127
  36   0.0000      -0.003359        -0.0914
  37   0.0000       0.008730         0.2376
  38   0.0000       0.012263         0.3337

MULLIKEN ATOMIC CHARGES
-----------------------
   0 C :   -0.088948
   1 C :   -0.088944
   2 N :   -0.221985
   3 N :   -0.221986
   4 C :    0.194022
   5 C :    0.070382
   6 C :    0.070382
   7 H :    0.098460
   8 H :    0.098459
   9 H :    0.098460
  10 H :    0.098459
  11 H :    0.089485
  12 H :    0.089484
  13 H :    0.115853
  14 C :    0.075649
  15 C :    0.075649
  16 H :    0.079361
  17 H :    0.079340
  18 H :    0.079361
  19 H :    0.079340
  20 H :    0.064859
  21 H :    0.064859
Sum of atomic charges:    1.0000000

LOEWDIN ATOMIC CHARGES
----------------------
   0 C :   -0.003474
   1 C :   -0.003474
   2 N :    0.087535
   3 N :    0.087535
   4 C :    0.102853
   5 C :    0.054012
   6 C :    0.054012
   7 H :    0.053512
   8 H :    0.053512
   9 H :    0.053512
  10 H :    0.053512
  11 H :    0.052889
  12 H :    0.052889
  13 H :    0.057933
  14 C :   -0.046902
  15 C :   -0.046902
  16 H :    0.055679
  17 H :    0.055659
  18 H :    0.055679
  19 H :    0.055659
  20 H :    0.057184
  21 H :    0.057184

  Mayer bond orders larger than 0.100000
B(  0-C ,  1-C ) :   1.6262 B(  0-C ,  2-N ) :   1.1616 B(  0-C , 14-C ) :   1.0823
B(  1-C ,  3-N ) :   1.1616 B(  1-C , 15-C ) :   1.0823 B(  2-N ,  4-C ) :   1.3525
B(  2-N ,  5-C ) :   0.9046 B(  3-N ,  4-C ) :   1.3525 B(  3-N ,  6-C ) :   0.9046
B(  4-C , 13-H ) :   0.9691 B(  5-C ,  7-H ) :   0.9711 B(  5-C , 10-H ) :   0.9711
B(  5-C , 11-H ) :   0.9705 B(  6-C ,  8-H ) :   0.9711 B(  6-C ,  9-H ) :   0.9711
B(  6-C , 12-H ) :   0.9705 B( 14-C , 16-H ) :   0.9491 B( 14-C , 19-H ) :   0.9491
B( 14-C , 20-H ) :   0.9414 B( 15-C , 17-H ) :   0.9491 B( 15-C , 18-H ) :   0.9491
B( 15-C , 21-H ) :   0.9414

Dispersion correction           -0.002863952
FINAL SINGLE POINT ENERGY      -383.509121761703

DIPOLE MOMENT
-------------
                                X             Y             Z
Electronic contribution:     -0.00000      -0.00000       3.24842
Nuclear contribution   :      0.00000       0.00000      -2.45967
                        -----------------------------------------
Total Dipole Moment    :     -0.00000      -0.00000       0.78875
                        -----------------------------------------
Magnitude (a.u.)       :      0.78875
Magnitude (Debye)      :      2.00484

Rotational constants in cm-1:     0.081294     0.050365     0.031856
Rotational constants in MHz :  2437.147006  1509.897264   955.032238

                             ****ORCA TERMINATED NORMALLY****
TOTAL RUN TIME: 0 days 0 hours 1 minutes 9 seconds 867 msec
