                         Program Version 5.0.4 -  RELEASE  -
|  1> # ORCA 5.0.4 - 2.inp # write input file
|  2> # Basic Mode
|  3> #
|  4> ! Freq wB97X Def2-SVP D4 SlowConv TightSCF DEFGRID2 Def2/J RIJCOSX
|  5>
|  6>
|  7>
|  8> %maxcore 4500
|  9>
| 10> %geom
| 11> Maxiter 150
| 12> END
| 13>
| 14> * xyzfile 0 1 2.xyz
| 15>
| 16>                          ****END OF INPUT****

CARTESIAN COORDINATES (ANGSTROEM)
---------------------------------
  C     -0.000001    0.680876   -0.623257
  C     -0.000001   -0.680876   -0.623257
  N     -0.000000    1.059845    0.717654
  N     -0.000000   -1.059844    0.717654
  C     -0.000000    0.000000    1.567101
  C      0.000000    2.441119    1.153866
  C      0.000000   -2.441119    1.153866
  H     -0.893547    2.969664    0.787753
  H     -0.893547   -2.969664    0.787752
  H      0.893548   -2.969662    0.787753
  H      0.893548    2.969663    0.787754
  H     -0.000000    2.453752    2.250396
  H     -0.000000   -2.453753    2.250395
  C     -0.000000    1.664688   -1.744642
  C     -0.000000   -1.664688   -1.744641
  H      0.888738    2.315484   -1.712644
  H      0.888737   -2.315484   -1.712643
  H     -0.888737   -2.315485   -1.712643
  H     -0.888737    2.315485   -1.712645
  H      0.000000    1.139847   -2.709956
  H     -0.000000   -1.139847   -2.709956

 Total Charge           Charge          ....    0
 Multiplicity           Mult            ....    1
 Number of Electrons    NEL             ....   68
 Basis Dimension        Dim             ....  186

ORBITAL ENERGIES
----------------

  NO   OCC          E(Eh)            E(eV)
   0   2.0000     -14.434583      -392.7850
   1   2.0000     -14.434582      -392.7850
   2   2.0000     -10.300173      -280.2819
   3   2.0000     -10.300145      -280.2812
   4   2.0000     -10.288926      -279.9759
   5   2.0000     -10.288407      -279.9618
   6   2.0000     -10.283171      -279.8193
   7   2.0000     -10.283118      -279.8179
   8   2.0000     -10.256502      -279.0936
   9   2.0000      -1.134674       -30.8761
  10   2.0000      -1.026594       -27.9351
  11   2.0000      -0.913698       -24.8630
  12   2.0000      -0.868722       -23.6391
  13   2.0000      -0.856834       -23.3156
  14   2.0000      -0.783744       -21.3268
  15   2.0000      -0.777080       -21.1454
  16   2.0000      -0.679295       -18.4846
  17   2.0000      -0.672569       -18.3015
  18   2.0000      -0.611386       -16.6367
  19   2.0000      -0.591940       -16.1075
  20   2.0000      -0.554274       -15.0826
  21   2.0000      -0.544563       -14.8183
  22   2.0000      -0.537651       -14.6302
  23   2.0000      -0.525676       -14.3044
  24   2.0000      -0.524950       -14.2846
  25   2.0000      -0.515485       -14.0270
  26   2.0000      -0.507951       -13.8220
  27   2.0000      -0.498469       -13.5640
  28   2.0000      -0.475492       -12.9388
  29   2.0000      -0.473146       -12.8750
  30   2.0000      -0.468339       -12.7442
  31   2.0000      -0.358041        -9.7428
  32   2.0000      -0.298244        -8.1156
  33   2.0000      -0.295932        -8.0527
  34   0.0000       0.133623         3.6361
  35   0.0000       0.135898         3.6980
  36   0.0000       0.151073         4.1109
  37   0.0000       0.152683         4.1547
  38   0.0000       0.177940         4.8420

MULLIKEN ATOMIC CHARGES
-----------------------
   0 C :   -0.105591
   1 C :   -0.105585
   2 N :   -0.248351
   3 N :   -0.248352
   4 C :   -0.135406
   5 C :    0.113906
   6 C :    0.113905
   7 H :    0.031782
   8 H :    0.031782
   9 H :    0.031782
  10 H :    0.031782
  11 H :    0.060152
  12 H :    0.060152
  13 C :    0.084958
  14 C :    0.084959
  15 H :    0.038756
  16 H :    0.038756
  17 H :    0.038756
  18 H :    0.038756
  19 H :    0.021550
  20 H :    0.021550
Sum of atomic charges:   -0.0000000

LOEWDIN ATOMIC CHARGES
----------------------
   0 C :   -0.049640
   1 C :   -0.049640
   2 N :    0.012763
   3 N :    0.012764
   4 C :   -0.256625
   5 C :    0.030544
   6 C :    0.030544
   7 H :    0.022327
   8 H :    0.022327
   9 H :    0.022327
  10 H :    0.022327
  11 H :    0.039792
  12 H :    0.039792
  13 C :   -0.057488
  14 C :   -0.057488
  15 H :    0.035550
  16 H :    0.035549
  17 H :    0.035549
  18 H :    0.035549
  19 H :    0.036589
  20 H :    0.036589

  Mayer bond orders larger than 0.100000
B(  0-C ,  1-C ) :   1.6755 B(  0-C ,  2-N ) :   1.1200 B(  0-C , 13-C ) :   1.0892
B(  1-C ,  3-N ) :   1.1200 B(  1-C , 14-C ) :   1.0892 B(  2-N ,  4-C ) :   1.2245
B(  2-N ,  5-C ) :   0.9701 B(  3-N ,  4-C ) :   1.2245 B(  3-N ,  6-C ) :   0.9701
B(  5-C ,  7-H ) :   0.9764 B(  5-C , 10-H ) :   0.9764 B(  5-C , 11-H ) :   0.9702
B(  6-C ,  8-H ) :   0.9764 B(  6-C ,  9-H ) :   0.9764 B(  6-C , 12-H ) :   0.9702
B( 13-C , 15-H ) :   0.9519 B( 13-C , 18-H ) :   0.9519 B( 13-C , 19-H ) :   0.9473
B( 14-C , 16-H ) :   0.9519 B( 14-C , 17-H ) :   0.9519 B( 14-C , 20-H ) :   0.9473

Dispersion correction           -0.002983146
FINAL SINGLE POINT ENERGY      -383.067255133921

DIPOLE MOMENT
-------------
                                X             Y             Z
Electronic contribution:     -0.00000       0.00000       3.58079
Nuclear contribution   :      0.00000      -0.00000      -4.78872
                        -----------------------------------------
Total Dipole Moment    :      0.00000      -0.00000      -1.20793
                        -----------------------------------------
Magnitude (a.u.)       :      1.20793
Magnitude (Debye)      :      3.07032

Dispersion correction in the Hessian             ... Starting D4

VIBRATIONAL FREQUENCIES
-----------------------

Scaling factor for frequencies =  1.000000000  (already applied!)

   0:         0.00 cm**-1
   1:         0.00 cm**-1
   2:         0.00 cm**-1
   3:         0.00 cm**-1
   4:         0.00 cm**-1
   5:         0.00 cm**-1
   6:       102.70 cm**-1
   7:       111.06 cm**-1
   8:       145.53 cm**-1
   9:       171.93 cm**-1
  10:       188.31 cm**-1
  11:       193.68 cm**-1
  12:       274.91 cm**-1
  13:       282.63 cm**-1
  14:       288.57 cm**-1
  15:       302.68 cm**-1
  16:       328.51 cm**-1
  17:       549.11 cm**-1
  18:       583.92 cm**-1
  19:       631.95 cm**-1
  20:       632.00 cm**-1
  21:       678.16 cm**-1
  22:       735.23 cm**-1
  23:       874.43 cm**-1
  24:       966.27 cm**-1
  25:      1050.42 cm**-1
  26:      1068.23 cm**-1
  27:      1079.02 cm**-1
  28:      1084.10 cm**-1
  29:      1113.78 cm**-1
  30:      1144.67 cm**-1
  31:      1145.98 cm**-1
  32:      1184.75 cm**-1
  33:      1259.31 cm**-1
  34:      1392.73 cm**-1
  35:      1401.30 cm**-1
  36:      1418.35 cm**-1
  37:      1425.01 cm**-1
  38:      1432.43 cm**-1
  39:      1449.88 cm**-1
  40:      1452.95 cm**-1
  41:      1454.46 cm**-1
  42:      1458.12 cm**-1
  43:      1463.73 cm**-1
  44:      1471.08 cm**-1
  45:      1472.25 cm**-1
  46:      1482.42 cm**-1
  47:      1495.15 cm**-1
  48:      1497.57 cm**-1
  49:      1502.28 cm**-1
  50:      1763.59 cm**-1
  51:      3061.06 cm**-1
  52:      3061.75 cm**-1
  53:      3068.68 cm**-1
  54:      3070.01 cm**-1
  55:      3145.46 cm**-1
  56:      3145.52 cm**-1
  57:      3158.32 cm**-1
  58:      3158.41 cm**-1
  59:      3183.42 cm**-1
  60:      3183.74 cm**-1
  61:      3214.30 cm**-1
  62:      3214.48 cm**-1

IR SPECTRUM
-----------

 Mode   freq       eps      Int      T**2         TX        TY        TZ
       cm**-1   L/(mol*cm) km/mol    a.u.
----------------------------------------------------------------------------
  6:    102.70   0.000173    0.87  0.000526  ( 0.022929  0.000000  0.000000)
  7:    111.06   0.000000    0.00  0.000000  (-0.000012  0.000000  0.000000)
  8:    145.53   0.000000    0.00  0.000000  (-0.000001  0.000000  0.000000)
  9:    171.93   0.000644    3.25  0.001168  (-0.034180 -0.000000 -0.000000)
 10:    188.31   0.001506    7.61  0.002495  (-0.049949  0.000000  0.000000)
 11:    193.68   0.000000    0.00  0.000000  ( 0.000004  0.000000 -0.000000)
 12:    274.91   0.000007    0.03  0.000007  ( 0.000001 -0.000001  0.002723)
 13:    282.63   0.000344    1.74  0.000380  (-0.000000 -0.019495 -0.000000)
 14:    288.57   0.000116    0.59  0.000126  ( 0.011211 -0.000000 -0.000000)
 15:    302.68   0.000573    2.90  0.000591  ( 0.000000 -0.000000  0.024315)
 16:    328.51   0.000000    0.00  0.000000  ( 0.000000  0.000000  0.000000)
 17:    549.11   0.000290    1.47  0.000165  (-0.000000 -0.012846  0.000000)
 18:    583.92   0.000966    4.88  0.000516  ( 0.000000  0.022719 -0.000000)
 19:    631.95   0.000729    3.68  0.000360  (-0.018970  0.000000 -0.000001)
 20:    632.00   0.000404    2.04  0.000200  ( 0.000001  0.000000 -0.014129)
 21:    678.16   0.000000    0.00  0.000000  (-0.000000  0.000000  0.000000)
 22:    735.23   0.001473    7.45  0.000625  ( 0.000000  0.000000 -0.025007)
 23:    874.43   0.004173   21.09  0.001489  ( 0.000000  0.038589 -0.000000)
 24:    966.27   0.000161    0.81  0.000052  ( 0.000000 -0.000000 -0.007202)
 25:   1050.42   0.000264    1.34  0.000079  (-0.008863 -0.000000 -0.000000)
 26:   1068.23   0.000000    0.00  0.000000  (-0.000000 -0.000000  0.000000)
 27:   1079.02   0.000001    0.00  0.000000  ( 0.000000  0.000419 -0.000000)
 28:   1084.10   0.000034    0.17  0.000010  ( 0.000000  0.000000  0.003132)
 29:   1113.78   0.000097    0.49  0.000027  ( 0.000000  0.005212 -0.000000)
 30:   1144.67   0.000006    0.03  0.000002  (-0.001283 -0.000000  0.000000)
 31:   1145.98   0.000000    0.00  0.000000  ( 0.000000 -0.000000  0.000000)
 32:   1184.75   0.000442    2.23  0.000116  (-0.000000 -0.000000 -0.010785)
 33:   1259.31   0.001145    5.79  0.000284  ( 0.000000  0.016847  0.000000)
 34:   1392.73   0.000093    0.47  0.000021  ( 0.000000 -0.004560  0.000000)
 35:   1401.30   0.000059    0.30  0.000013  (-0.000000  0.000001  0.003613)
 36:   1418.35   0.000437    2.21  0.000096  (-0.000000  0.000001 -0.009808)
 37:   1425.01   0.002749   13.89  0.000602  ( 0.000000  0.024538  0.000001)
 38:   1432.43   0.001787    9.03  0.000389  ( 0.000000 -0.000002  0.019731)
 39:   1449.88   0.007901   39.93  0.001701  (-0.000000 -0.041239  0.000001)
 40:   1452.95   0.000000    0.00  0.000000  (-0.000000  0.000001 -0.000000)
 41:   1454.46   0.000978    4.94  0.000210  ( 0.014487  0.000000 -0.000000)
 42:   1458.12   0.003408   17.22  0.000729  (-0.000000  0.027009 -0.000000)
 43:   1463.73   0.006997   35.36  0.001492  (-0.000001  0.000001  0.038624)
 44:   1471.08   0.000000    0.00  0.000000  ( 0.000010 -0.000000  0.000000)
 45:   1472.25   0.006945   35.10  0.001472  ( 0.038369 -0.000000  0.000001)
 46:   1482.42   0.000044    0.22  0.000009  ( 0.000000 -0.000000 -0.003054)
 47:   1495.15   0.003162   15.98  0.000660  ( 0.000000 -0.000000  0.025690)
 48:   1497.57   0.000715    3.61  0.000149  (-0.000000 -0.012205  0.000002)
 49:   1502.28   0.010822   54.69  0.002248  ( 0.000000  0.047413  0.000001)
 50:   1763.59   0.000230    1.16  0.000041  ( 0.000000  0.000000 -0.006380)
 51:   3061.06   0.006026   30.45  0.000614  (-0.000000 -0.024786  0.000019)
 52:   3061.75   0.003786   19.13  0.000386  ( 0.000000  0.000025  0.019645)
 53:   3068.68   0.020592  104.06  0.002094  (-0.000000 -0.045761  0.000001)
 54:   3070.01   0.000079    0.40  0.000008  ( 0.000000  0.000012  0.002826)
 55:   3145.46   0.000003    0.02  0.000000  (-0.000552  0.000000 -0.000001)
 56:   3145.52   0.003794   19.17  0.000376  (-0.019401  0.000000  0.000000)
 57:   3158.32   0.000000    0.00  0.000000  (-0.000119  0.000000 -0.000000)
 58:   3158.41   0.008237   41.63  0.000814  ( 0.028528 -0.000000  0.000000)
 59:   3183.42   0.001844    9.32  0.000181  ( 0.000000 -0.013445  0.000131)
 60:   3183.74   0.002268   11.46  0.000222  (-0.000000 -0.000118 -0.014911)
 61:   3214.30   0.000514    2.60  0.000050  ( 0.000000  0.000065 -0.007064)
 62:   3214.48   0.000096    0.49  0.000009  (-0.000000  0.003052  0.000149)

--------------------------
THERMOCHEMISTRY AT 298.15K
--------------------------

Temperature         ... 298.15 K
Pressure            ... 1.00 atm
Total Mass          ... 124.19 AMU

Throughout the following assumptions are being made:
  (1) The electronic state is orbitally nondegenerate
  (2) There are no thermally accessible electronically excited states
  (3) Hindered rotations indicated by low frequency modes are not
      treated as such but are treated as vibrations and this may
      cause some error
  (4) All equations used are the standard statistical mechanics
      equations for an ideal gas
  (5) All vibrations are strictly harmonic

freq.     102.70  E(vib)   ...       0.46
freq.     111.06  E(vib)   ...       0.45
freq.     145.53  E(vib)   ...       0.41
freq.     171.93  E(vib)   ...       0.38
freq.     188.31  E(vib)   ...       0.36
freq.     193.68  E(vib)   ...       0.36
freq.     274.91  E(vib)   ...       0.28
freq.     282.63  E(vib)   ...       0.28
freq.     288.57  E(vib)   ...       0.27
freq.     302.68  E(vib)   ...       0.26
freq.     328.51  E(vib)   ...       0.24
freq.     549.11  E(vib)   ...       0.12
freq.     583.92  E(vib)   ...       0.11
freq.     631.95  E(vib)   ...       0.09
freq.     632.00  E(vib)   ...       0.09
freq.     678.16  E(vib)   ...       0.08
freq.     735.23  E(vib)   ...       0.06
freq.     874.43  E(vib)   ...       0.04
freq.     966.27  E(vib)   ...       0.03
freq.    1050.42  E(vib)   ...       0.02
freq.    1068.23  E(vib)   ...       0.02
freq.    1079.02  E(vib)   ...       0.02
freq.    1084.10  E(vib)   ...       0.02
freq.    1113.78  E(vib)   ...       0.01
freq.    1144.67  E(vib)   ...       0.01
freq.    1145.98  E(vib)   ...       0.01
freq.    1184.75  E(vib)   ...       0.01
freq.    1259.31  E(vib)   ...       0.01
freq.    1392.73  E(vib)   ...       0.00
freq.    1401.30  E(vib)   ...       0.00
freq.    1418.35  E(vib)   ...       0.00
freq.    1425.01  E(vib)   ...       0.00
freq.    1432.43  E(vib)   ...       0.00
freq.    1449.88  E(vib)   ...       0.00
freq.    1452.95  E(vib)   ...       0.00
freq.    1454.46  E(vib)   ...       0.00
freq.    1458.12  E(vib)   ...       0.00
freq.    1463.73  E(vib)   ...       0.00
freq.    1471.08  E(vib)   ...       0.00
freq.    1472.25  E(vib)   ...       0.00
freq.    1482.42  E(vib)   ...       0.00
freq.    1495.15  E(vib)   ...       0.00
freq.    1497.57  E(vib)   ...       0.00
freq.    1502.28  E(vib)   ...       0.00
freq.    1763.59  E(vib)   ...       0.00
freq.    3061.06  E(vib)   ...       0.00
freq.    3061.75  E(vib)   ...       0.00
freq.    3068.68  E(vib)   ...       0.00
freq.    3070.01  E(vib)   ...       0.00
freq.    3145.46  E(vib)   ...       0.00
freq.    3145.52  E(vib)   ...       0.00
freq.    3158.32  E(vib)   ...       0.00
freq.    3158.41  E(vib)   ...       0.00
freq.    3183.42  E(vib)   ...       0.00
freq.    3183.74  E(vib)   ...       0.00
freq.    3214.30  E(vib)   ...       0.00
freq.    3214.48  E(vib)   ...       0.00

------------
INNER ENERGY
------------

The inner energy is: U= E(el) + E(ZPE) + E(vib) + E(rot) + E(trans)
    E(el)   - is the total energy from the electronic structure calculation
              = E(kin-el) + E(nuc-el) + E(el-el) + E(nuc-nuc)
    E(ZPE)  - the the zero temperature vibrational energy from the frequency calculation
    E(vib)  - the the finite temperature correction to E(ZPE) due to population
              of excited vibrational states
    E(rot)  - is the rotational thermal energy
    E(trans)- is the translational thermal energy

Summary of contributions to the inner energy U:
Electronic energy                ...   -383.06725513 Eh
Zero point energy                ...      0.18423605 Eh     115.61 kcal/mol
Thermal vibrational correction   ...      0.00725670 Eh       4.55 kcal/mol
Thermal rotational correction    ...      0.00141627 Eh       0.89 kcal/mol
Thermal translational correction ...      0.00141627 Eh       0.89 kcal/mol
-----------------------------------------------------------------------
Total thermal energy                   -382.87292984 Eh

Summary of corrections to the electronic energy:
(perhaps to be used in another calculation)
Total thermal correction                  0.01008924 Eh       6.33 kcal/mol
Non-thermal (ZPE) correction              0.18423605 Eh     115.61 kcal/mol
-----------------------------------------------------------------------
Total correction                          0.19432530 Eh     121.94 kcal/mol

--------
ENTHALPY
--------

The enthalpy is H = U + kB*T
                kB is Boltzmann's constant
Total free energy                 ...   -382.87292984 Eh
Thermal Enthalpy correction       ...      0.00094421 Eh       0.59 kcal/mol
-----------------------------------------------------------------------
Total Enthalpy                    ...   -382.87198563 Eh

Note: Rotational entropy computed according to Herzberg
Infrared and Raman Spectra, Chapter V,1, Van Nostrand Reinhold, 1945
Point Group:  C2v, Symmetry Number:   2
Rotational constants in cm-1:     0.082679     0.050982     0.032310

Vibrational entropy computed according to the QRRHO of S. Grimme
Chem.Eur.J. 2012 18 9955

-------
ENTROPY
-------

The entropy contributions are T*S = T*(S(el)+S(vib)+S(rot)+S(trans))
     S(el)   - electronic entropy
     S(vib)  - vibrational entropy
     S(rot)  - rotational entropy
     S(trans)- translational entropy
The entropies will be listed as multiplied by the temperature to get
units of energy

Electronic entropy                ...      0.00000000 Eh      0.00 kcal/mol
Vibrational entropy               ...      0.01254559 Eh      7.87 kcal/mol
Rotational entropy                ...      0.01305864 Eh      8.19 kcal/mol
Translational entropy             ...      0.01917803 Eh     12.03 kcal/mol
-----------------------------------------------------------------------
Final entropy term                ...      0.04478227 Eh     28.10 kcal/mol

In case the symmetry of your molecule has not been determined correctly
or in case you have a reason to use a different symmetry number we print
out the resulting rotational entropy values for sn=1,12 :
 --------------------------------------------------------
|  sn= 1 | S(rot)=       0.01371310 Eh      8.61 kcal/mol|
|  sn= 2 | S(rot)=       0.01305864 Eh      8.19 kcal/mol|
|  sn= 3 | S(rot)=       0.01267581 Eh      7.95 kcal/mol|
|  sn= 4 | S(rot)=       0.01240419 Eh      7.78 kcal/mol|
|  sn= 5 | S(rot)=       0.01219350 Eh      7.65 kcal/mol|
|  sn= 6 | S(rot)=       0.01202135 Eh      7.54 kcal/mol|
|  sn= 7 | S(rot)=       0.01187581 Eh      7.45 kcal/mol|
|  sn= 8 | S(rot)=       0.01174973 Eh      7.37 kcal/mol|
|  sn= 9 | S(rot)=       0.01163852 Eh      7.30 kcal/mol|
|  sn=10 | S(rot)=       0.01153904 Eh      7.24 kcal/mol|
|  sn=11 | S(rot)=       0.01144905 Eh      7.18 kcal/mol|

                             ****ORCA TERMINATED NORMALLY****
TOTAL RUN TIME: 0 days 0 hours 16 minutes 22 seconds 709 msec
