                         Program Version 5.0.4 -  RELEASE  -
|  1> ! SP wB97X D4 def2-SVP def2/J defgrid2
|  2> %maxcore 3000
|  3> %PAL NPROCS 4 END
|  4> * xyz 1 1
|  5> C 1.253 -0.1986 -0.5858
|  6> C 0.2696 -1.1192 -0.7819
|  7> N 0.703 0.8278 0.1516
|  8> N -0.8625 -0.6384 -0.1597
|  9> C -0.572 0.5356 0.3939
| 10> H 2.2922 -0.1928 -0.9097
| 11> H 0.2841 -2.0701 -1.3114
| 12> C 1.3974 2.0575 0.591
| 13> C -2.1823 -1.3036 -0.1119
| 14> H 0.6484 2.6046 1.1834
| 15> H -2.8095 -0.6346 0.4963
| 16> H -1.2662 1.1583 0.959
| 17> C 1.7898 2.8928 -0.62
| 18> C -2.766 -1.4037 -1.5142
| 19> C -2.061 -2.6512 0.5854
| 20> C 2.5794 1.7005 1.4804
| 21> H 2.5317 2.3646 -1.2394
| 22> H -2.1518 -2.0585 -2.1523
| 23> H -1.437 -3.345 0.0003
| 24> H 3.3522 1.1572 0.9143
| 25> H 0.912 3.1285 -1.2394
| 26> H -2.8359 -0.4122 -1.9851
| 27> H -1.6244 -2.5401 1.5888
| 28> H 2.2624 1.0827 2.3333
| 29> H 2.2393 3.8365 -0.2791
| 30> H -3.7761 -1.8343 -1.4568
| 31> H -3.0606 -3.0976 0.687
| 32> H 3.0305 2.6249 1.8687
| 33> **                         ****END OF INPUT****

CARTESIAN COORDINATES (ANGSTROEM)
---------------------------------
  C      1.253000   -0.198600   -0.585800
  C      0.269600   -1.119200   -0.781900
  N      0.703000    0.827800    0.151600
  N     -0.862500   -0.638400   -0.159700
  C     -0.572000    0.535600    0.393900
  H      2.292200   -0.192800   -0.909700
  H      0.284100   -2.070100   -1.311400
  C      1.397400    2.057500    0.591000
  C     -2.182300   -1.303600   -0.111900
  H      0.648400    2.604600    1.183400
  H     -2.809500   -0.634600    0.496300
  H     -1.266200    1.158300    0.959000
  C      1.789800    2.892800   -0.620000
  C     -2.766000   -1.403700   -1.514200
  C     -2.061000   -2.651200    0.585400
  C      2.579400    1.700500    1.480400
  H      2.531700    2.364600   -1.239400
  H     -2.151800   -2.058500   -2.152300
  H     -1.437000   -3.345000    0.000300
  H      3.352200    1.157200    0.914300
  H      0.912000    3.128500   -1.239400
  H     -2.835900   -0.412200   -1.985100
  H     -1.624400   -2.540100    1.588800
  H      2.262400    1.082700    2.333300
  H      2.239300    3.836500   -0.279100
  H     -3.776100   -1.834300   -1.456800
  H     -3.060600   -3.097600    0.687000
  H      3.030500    2.624900    1.868700

 Total Charge           Charge          ....    1
 Multiplicity           Mult            ....    1
 Number of Electrons    NEL             ....   84
 Basis Dimension        Dim             ....  239

ORBITAL ENERGIES
----------------

  NO   OCC          E(Eh)            E(eV)
   0   2.0000     -14.655549      -398.7978
   1   2.0000     -14.655519      -398.7969
   2   2.0000     -10.532688      -286.6090
   3   2.0000     -10.481640      -285.2199
   4   2.0000     -10.481066      -285.2043
   5   2.0000     -10.477086      -285.0960
   6   2.0000     -10.477042      -285.0948
   7   2.0000     -10.407067      -283.1907
   8   2.0000     -10.407056      -283.1904
   9   2.0000     -10.406909      -283.1864
  10   2.0000     -10.406886      -283.1858
  11   2.0000      -1.362320       -37.0706
  12   2.0000      -1.240677       -33.7605
  13   2.0000      -1.105260       -30.0757
  14   2.0000      -1.067301       -29.0427
  15   2.0000      -1.050734       -28.5919
  16   2.0000      -0.954969       -25.9860
  17   2.0000      -0.954233       -25.9660
  18   2.0000      -0.936205       -25.4754
  19   2.0000      -0.932798       -25.3827
  20   2.0000      -0.882679       -24.0189
  21   2.0000      -0.849120       -23.1057
  22   2.0000      -0.808168       -21.9914
  23   2.0000      -0.772233       -21.0135
  24   2.0000      -0.759353       -20.6630
  25   2.0000      -0.735724       -20.0201
  26   2.0000      -0.728787       -19.8313
  27   2.0000      -0.711153       -19.3515
  28   2.0000      -0.699195       -19.0261
  29   2.0000      -0.698362       -19.0034
  30   2.0000      -0.693489       -18.8708
  31   2.0000      -0.653815       -17.7912
  32   2.0000      -0.636169       -17.3111
  33   2.0000      -0.635109       -17.2822
  34   2.0000      -0.628604       -17.1052
  35   2.0000      -0.622925       -16.9507
  36   2.0000      -0.605194       -16.4682
  37   2.0000      -0.597067       -16.2470
  38   2.0000      -0.596265       -16.2252
  39   2.0000      -0.592395       -16.1199
  40   2.0000      -0.554744       -15.0953
  41   2.0000      -0.521894       -14.2015
  42   0.0000      -0.084855        -2.3090
  43   0.0000      -0.051324        -1.3966
  44   0.0000      -0.000926        -0.0252
  45   0.0000       0.009102         0.2477
  46   0.0000       0.017621         0.4795

MULLIKEN ATOMIC CHARGES
-----------------------
   0 C :    0.071099
   1 C :    0.070855
   2 N :   -0.184256
   3 N :   -0.184133
   4 C :    0.197696
   5 H :    0.098055
   6 H :    0.098038
   7 C :   -0.086089
   8 C :   -0.086164
   9 H :    0.062818
  10 H :    0.062585
  11 H :    0.117246
  12 C :   -0.000269
  13 C :   -0.001022
  14 C :   -0.005246
  15 C :   -0.006271
  16 H :    0.050958
  17 H :    0.051034
  18 H :    0.050822
  19 H :    0.050996
  20 H :    0.059687
  21 H :    0.060088
  22 H :    0.061750
  23 H :    0.062102
  24 H :    0.081780
  25 H :    0.081702
  26 H :    0.082085
  27 H :    0.082053
Sum of atomic charges:    1.0000000

LOEWDIN ATOMIC CHARGES
----------------------
   0 C :    0.024754
   1 C :    0.024712
   2 N :    0.099862
   3 N :    0.100000
   4 C :    0.105957
   5 H :    0.057118
   6 H :    0.057062
   7 C :    0.035135
   8 C :    0.035079
   9 H :    0.040721
  10 H :    0.040647
  11 H :    0.059366
  12 C :   -0.049636
  13 C :   -0.049737
  14 C :   -0.049872
  15 C :   -0.049995
  16 H :    0.036422
  17 H :    0.036421
  18 H :    0.036095
  19 H :    0.036104
  20 H :    0.039260
  21 H :    0.039430
  22 H :    0.039990
  23 H :    0.040107
  24 H :    0.053565
  25 H :    0.053620
  26 H :    0.053854
  27 H :    0.053957

  Mayer bond orders larger than 0.100000
B(  0-C ,  1-C ) :   1.6116 B(  0-C ,  2-N ) :   1.1748 B(  0-C ,  5-H ) :   0.9828
B(  1-C ,  3-N ) :   1.1747 B(  1-C ,  6-H ) :   0.9828 B(  2-N ,  4-C ) :   1.3568
B(  2-N ,  7-C ) :   0.8372 B(  3-N ,  4-C ) :   1.3570 B(  3-N ,  8-C ) :   0.8374
B(  4-C , 11-H ) :   0.9712 B(  7-C ,  9-H ) :   0.9401 B(  7-C , 12-C ) :   1.0638
B(  7-C , 15-C ) :   1.0631 B(  8-C , 10-H ) :   0.9400 B(  8-C , 13-C ) :   1.0637
B(  8-C , 14-C ) :   1.0632 B( 12-C , 16-H ) :   0.9621 B( 12-C , 20-H ) :   0.9667
B( 12-C , 24-H ) :   0.9682 B( 13-C , 17-H ) :   0.9623 B( 13-C , 21-H ) :   0.9667
B( 13-C , 25-H ) :   0.9682 B( 14-C , 18-H ) :   0.9624 B( 14-C , 22-H ) :   0.9670
B( 14-C , 26-H ) :   0.9677 B( 15-C , 19-H ) :   0.9625 B( 15-C , 23-H ) :   0.9671
B( 15-C , 27-H ) :   0.9675

Dispersion correction           -0.003981709
FINAL SINGLE POINT ENERGY      -462.059786248029

DIPOLE MOMENT
-------------
                                X             Y             Z
Electronic contribution:      0.40044      -0.40735      -0.11005
Nuclear contribution   :     -0.57655       0.56320       0.26446
                        -----------------------------------------
Total Dipole Moment    :     -0.17611       0.15585       0.15442
                        -----------------------------------------
Magnitude (a.u.)       :      0.28133
Magnitude (Debye)      :      0.71509

Rotational constants in cm-1:     0.089660     0.018409     0.017771
Rotational constants in MHz :  2687.939632   551.886195   532.748435

                             ****ORCA TERMINATED NORMALLY****
TOTAL RUN TIME: 0 days 0 hours 1 minutes 16 seconds 422 msec
