                         Program Version 5.0.4 -  RELEASE  -
|  1> ! Opt FREQ wB97X D4 Def2-SVP SlowConv TightSCF DEFGRID2 Def2/J RIJCOSX CPCM(Water)
|  2>
|  3> %MAXCORE 4000
|  4>
|  5> %scf MaxIter 20000 end
|  6>
|  7> %geom
|  8> MaxIter 500
|  9> end
| 10>
| 11> %PAL NPROCS 8 END
| 12>
| 13> * xyz 1 1
| 14> C 1.45903 -0.40223 -0.36105
| 15> C 0.45409 -1.26774 -0.62664
| 16> N 0.88028 0.66928 0.33499
| 17> N -0.74331 -0.81762 -0.10077
| 18> C -0.45366 0.38904 0.4522
| 19> H 2.51833 -0.28238 -0.72361
| 20> H 0.46421 -2.15965 -1.17722
| 21> C 1.42364 1.97135 0.71142
| 22> C -2.15953 -1.2846 -0.15882
| 23> H 0.84597 2.23787 1.59399
| 24> H -2.7147 -0.41484 0.15975
| 25> H -1.16002 1.11883 0.76232
| 26> C 1.324 3.01942 -0.43864
| 27> C -2.55887 -1.49095 -1.63376
| 28> C -2.47084 -2.5304 0.702
| 29> C 2.88297 1.77135 1.14301
| 30> H 2.02692 2.6846 -1.22211
| 31> H -2.0312 -2.37827 -2.06105
| 32> H -2.05921 -3.44453 0.25918
| 33> H 3.48222 1.52745 0.23969
| 34> H 0.27434 3.14955 -0.79641
| 35> H -2.19116 -0.68702 -2.25055
| 36> H -2.04127 -2.38242 1.71441
| 37> H 2.9024 0.88572 1.83388
| 38> H 1.71458 4.0284 -0.03013
| 39> H -3.64349 -1.5666 -1.82458
| 40> H -3.5851 -2.52454 0.69624
| 41> H 3.29915 2.65267 1.68904
| 42> **                         ****END OF INPUT****
 Total Charge           Charge          ....    1
 Multiplicity           Mult            ....    1
 Number of Electrons    NEL             ....   84
Dispersion correction           -0.003951445
FINAL SINGLE POINT ENERGY      -462.106219774546
Dispersion correction            ... Starting D4
Dispersion correction           -0.003980464
FINAL SINGLE POINT ENERGY      -462.126171275915
Dispersion correction            ... Starting D4
Dispersion correction           -0.003990932
FINAL SINGLE POINT ENERGY      -462.133247496241
Dispersion correction            ... Starting D4
FINAL SINGLE POINT ENERGY      -462.135551987965
FINAL SINGLE POINT ENERGY      -462.136066282157
FINAL SINGLE POINT ENERGY      -462.136373819858
FINAL SINGLE POINT ENERGY      -462.136560055612
FINAL SINGLE POINT ENERGY      -462.136709790281
FINAL SINGLE POINT ENERGY      -462.136840821272
FINAL SINGLE POINT ENERGY      -462.136971431161
FINAL SINGLE POINT ENERGY      -462.137009996514
FINAL SINGLE POINT ENERGY      -462.137030074024
Dispersion correction           -0.003981679
FINAL SINGLE POINT ENERGY      -462.137030460434
Dispersion correction            ... Starting D4
Dispersion correction           -0.003981644
FINAL SINGLE POINT ENERGY      -462.137029159112
Dispersion correction            ... Starting D4
                    ***********************HURRAY********************

CARTESIAN COORDINATES (ANGSTROEM)
---------------------------------
  C      1.253015   -0.198578   -0.585770
  C      0.269589   -1.119170   -0.781927
  N      0.702982    0.827807    0.151649
  N     -0.862504   -0.638381   -0.159720
  C     -0.572018    0.535621    0.393942
  H      2.292199   -0.192804   -0.909670
  H      0.284097   -2.070071   -1.311411
  C      1.397421    2.057505    0.590973
  C     -2.182254   -1.303648   -0.111854
  H      0.648379    2.604577    1.183378
  H     -2.809513   -0.634603    0.496329
  H     -1.266152    1.158273    0.958979
  C      1.789779    2.892797   -0.620012
  C     -2.766027   -1.403662   -1.514155
  C     -2.060971   -2.651218    0.585411
  C      2.579443    1.700527    1.480403
  H      2.531700    2.364613   -1.239448
  H     -2.151791   -2.058529   -2.152297
  H     -1.437007   -3.345042    0.000281
  H      3.352229    1.157191    0.914254
  H      0.911950    3.128522   -1.239436
  H     -2.835882   -0.412214   -1.985058
  H     -1.624407   -2.540117    1.588840
  H      2.262385    1.082681    2.333275
  H      2.239303    3.836543   -0.279102
  H     -3.776055   -1.834253   -1.456753
  H     -3.060628   -3.097552    0.686977
  H      3.030507    2.624924    1.868701

 Multiplicity           Mult            ....    1
 Number of Electrons    NEL             ....   84
 Basis Dimension        Dim             ....  239

ORBITAL ENERGIES
----------------

  NO   OCC          E(Eh)            E(eV)
   0   2.0000     -14.509287      -394.8178
   1   2.0000     -14.509266      -394.8172
   2   2.0000     -10.384073      -282.5650
   3   2.0000     -10.337492      -281.2975
   4   2.0000     -10.337393      -281.2948
   5   2.0000     -10.334800      -281.2242
   6   2.0000     -10.334224      -281.2085
   7   2.0000     -10.274452      -279.5820
   8   2.0000     -10.274386      -279.5803
   9   2.0000     -10.274309      -279.5782
  10   2.0000     -10.274219      -279.5757
  11   2.0000      -1.215760       -33.0825
  12   2.0000      -1.095573       -29.8120
  13   2.0000      -0.964734       -26.2517
  14   2.0000      -0.920942       -25.0601
  15   2.0000      -0.912886       -24.8409
  16   2.0000      -0.821655       -22.3584
  17   2.0000      -0.821036       -22.3415
  18   2.0000      -0.793887       -21.6028
  19   2.0000      -0.790712       -21.5164
  20   2.0000      -0.734259       -19.9802
  21   2.0000      -0.709968       -19.3192
  22   2.0000      -0.665563       -18.1109
  23   2.0000      -0.627500       -17.0752
  24   2.0000      -0.617853       -16.8126
  25   2.0000      -0.586239       -15.9524
  26   2.0000      -0.584354       -15.9011
  27   2.0000      -0.573126       -15.5956
  28   2.0000      -0.561914       -15.2905
  29   2.0000      -0.557347       -15.1662
  30   2.0000      -0.556473       -15.1424
  31   2.0000      -0.518654       -14.1133
  32   2.0000      -0.503139       -13.6911
  33   2.0000      -0.501467       -13.6456
  34   2.0000      -0.496505       -13.5106
  35   2.0000      -0.489058       -13.3080
  36   2.0000      -0.471986       -12.8434
  37   2.0000      -0.462933       -12.5970
  38   2.0000      -0.459738       -12.5101
  39   2.0000      -0.454801       -12.3758
  40   2.0000      -0.414074       -11.2675
  41   2.0000      -0.375684       -10.2229
  42   0.0000       0.063451         1.7266
  43   0.0000       0.093187         2.5358
  44   0.0000       0.140908         3.8343
  45   0.0000       0.145323         3.9544
  46   0.0000       0.163293         4.4434

MULLIKEN ATOMIC CHARGES
-----------------------
   0 C :    0.058161
   1 C :    0.058176
   2 N :   -0.191665
   3 N :   -0.191600
   4 C :    0.219413
   5 H :    0.107634
   6 H :    0.107695
   7 C :   -0.049777
   8 C :   -0.049340
   9 H :    0.075868
  10 H :    0.075579
  11 H :    0.141291
  12 C :   -0.008577
  13 C :   -0.009175
  14 C :   -0.013477
  15 C :   -0.014423
  16 H :    0.050098
  17 H :    0.050317
  18 H :    0.050983
  19 H :    0.051097
  20 H :    0.056334
  21 H :    0.056461
  22 H :    0.057302
  23 H :    0.057593
  24 H :    0.063404
  25 H :    0.063146
  26 H :    0.063659
  27 H :    0.063824
Sum of atomic charges:    1.0000000

LOEWDIN ATOMIC CHARGES
----------------------
   0 C :    0.018051
   1 C :    0.018270
   2 N :    0.098254
   3 N :    0.098477
   4 C :    0.126898
   5 H :    0.061078
   6 H :    0.061114
   7 C :    0.043543
   8 C :    0.043589
   9 H :    0.049118
  10 H :    0.049017
  11 H :    0.071991
  12 C :   -0.054409
  13 C :   -0.054384
  14 C :   -0.054632
  15 C :   -0.054722
  16 H :    0.035861
  17 H :    0.035979
  18 H :    0.036041
  19 H :    0.035996
  20 H :    0.037957
  21 H :    0.038014
  22 H :    0.038236
  23 H :    0.038332
  24 H :    0.045433
  25 H :    0.045382
  26 H :    0.045660
  27 H :    0.045852

  Mayer bond orders larger than 0.100000
B(  0-C ,  1-C ) :   1.6106 B(  0-C ,  2-N ) :   1.1657 B(  0-C ,  5-H ) :   0.9841
B(  1-C ,  3-N ) :   1.1658 B(  1-C ,  6-H ) :   0.9842 B(  2-N ,  4-C ) :   1.3555
B(  2-N ,  7-C ) :   0.8516 B(  3-N ,  4-C ) :   1.3558 B(  3-N ,  8-C ) :   0.8519
B(  4-C , 11-H ) :   0.9668 B(  7-C ,  9-H ) :   0.9391 B(  7-C , 12-C ) :   1.0705
B(  7-C , 15-C ) :   1.0698 B(  8-C , 10-H ) :   0.9390 B(  8-C , 13-C ) :   1.0703
B(  8-C , 14-C ) :   1.0699 B( 12-C , 16-H ) :   0.9624 B( 12-C , 20-H ) :   0.9671
B( 12-C , 24-H ) :   0.9701 B( 13-C , 17-H ) :   0.9625 B( 13-C , 21-H ) :   0.9671
B( 13-C , 25-H ) :   0.9701 B( 14-C , 18-H ) :   0.9627 B( 14-C , 22-H ) :   0.9674
B( 14-C , 26-H ) :   0.9696 B( 15-C , 19-H ) :   0.9628 B( 15-C , 23-H ) :   0.9676
B( 15-C , 27-H ) :   0.9695

Dispersion correction           -0.003981711
FINAL SINGLE POINT ENERGY      -462.137027906039

DIPOLE MOMENT
-------------
                                X             Y             Z
Electronic contribution:      0.29942      -0.31860      -0.02329
Nuclear contribution   :     -0.57660       0.56310       0.26423
                        -----------------------------------------
Total Dipole Moment    :     -0.27719       0.24450       0.24094
                        -----------------------------------------
Magnitude (a.u.)       :      0.44121
Magnitude (Debye)      :      1.12146

Dispersion correction in the Hessian             ... Starting D4

VIBRATIONAL FREQUENCIES
-----------------------

Scaling factor for frequencies =  1.000000000  (already applied!)

   0:         0.00 cm**-1
   1:         0.00 cm**-1
   2:         0.00 cm**-1
   3:         0.00 cm**-1
   4:         0.00 cm**-1
   5:         0.00 cm**-1
   6:        38.50 cm**-1
   7:        50.81 cm**-1
   8:       119.82 cm**-1
   9:       153.72 cm**-1
  10:       156.81 cm**-1
  11:       235.96 cm**-1
  12:       252.46 cm**-1
  13:       264.20 cm**-1
  14:       274.71 cm**-1
  15:       290.02 cm**-1
  16:       302.28 cm**-1
  17:       358.39 cm**-1
  18:       398.06 cm**-1
  19:       443.59 cm**-1
  20:       455.96 cm**-1
  21:       554.23 cm**-1
  22:       630.86 cm**-1
  23:       676.60 cm**-1
  24:       678.74 cm**-1
  25:       688.77 cm**-1
  26:       770.27 cm**-1
  27:       896.93 cm**-1
  28:       912.46 cm**-1
  29:       918.38 cm**-1
  30:       918.82 cm**-1
  31:       940.81 cm**-1
  32:       945.83 cm**-1
  33:       965.51 cm**-1
  34:       965.79 cm**-1
  35:      1035.83 cm**-1
  36:      1044.61 cm**-1
  37:      1093.72 cm**-1
  38:      1109.56 cm**-1
  39:      1117.30 cm**-1
  40:      1171.52 cm**-1
  41:      1172.05 cm**-1
  42:      1174.91 cm**-1
  43:      1196.43 cm**-1
  44:      1219.85 cm**-1
  45:      1271.99 cm**-1
  46:      1345.13 cm**-1
  47:      1348.48 cm**-1
  48:      1353.29 cm**-1
  49:      1371.06 cm**-1
  50:      1400.96 cm**-1
  51:      1403.79 cm**-1
  52:      1404.36 cm**-1
  53:      1408.60 cm**-1
  54:      1416.39 cm**-1
  55:      1447.02 cm**-1
  56:      1447.43 cm**-1
  57:      1454.35 cm**-1
  58:      1457.45 cm**-1
  59:      1458.42 cm**-1
  60:      1463.64 cm**-1
  61:      1468.18 cm**-1
  62:      1469.54 cm**-1
  63:      1498.80 cm**-1
  64:      1513.22 cm**-1
  65:      1648.39 cm**-1
  66:      1650.96 cm**-1
  67:      3072.22 cm**-1
  68:      3072.70 cm**-1
  69:      3074.20 cm**-1
  70:      3074.61 cm**-1
  71:      3132.92 cm**-1
  72:      3133.21 cm**-1
  73:      3176.32 cm**-1
  74:      3176.70 cm**-1
  75:      3179.01 cm**-1
  76:      3179.55 cm**-1
  77:      3188.32 cm**-1
  78:      3188.58 cm**-1
  79:      3190.02 cm**-1
  80:      3190.06 cm**-1
  81:      3299.20 cm**-1
  82:      3301.46 cm**-1
  83:      3319.07 cm**-1

IR SPECTRUM
-----------

 Mode   freq       eps      Int      T**2         TX        TY        TZ
       cm**-1   L/(mol*cm) km/mol    a.u.
----------------------------------------------------------------------------
  6:     38.50   0.000008    0.04  0.000061  (-0.002112  0.003328 -0.006760)
  7:     50.81   0.000002    0.01  0.000010  ( 0.000866 -0.002272  0.002104)
  8:    119.82   0.000054    0.27  0.000140  ( 0.004334 -0.005628  0.009454)
  9:    153.72   0.000001    0.00  0.000001  (-0.000972  0.000608  0.000081)
 10:    156.81   0.000052    0.26  0.000103  (-0.005732  0.006256  0.005548)
 11:    235.96   0.000004    0.02  0.000006  ( 0.002066 -0.000525  0.001122)
 12:    252.46   0.000010    0.05  0.000012  (-0.001176 -0.003086  0.000961)
 13:    264.20   0.000032    0.16  0.000038  (-0.005542  0.000673  0.002548)
 14:    274.71   0.000011    0.05  0.000012  ( 0.003366  0.000424 -0.000887)
 15:    290.02   0.000042    0.21  0.000045  ( 0.002109 -0.004663 -0.004394)
 16:    302.28   0.000074    0.37  0.000076  (-0.006072 -0.006185 -0.001141)
 17:    358.39   0.000013    0.06  0.000011  ( 0.002253  0.002470 -0.000049)
 18:    398.06   0.000205    1.04  0.000161  (-0.003919  0.005866 -0.010533)
 19:    443.59   0.000001    0.01  0.000001  (-0.000090  0.000591  0.000749)
 20:    455.96   0.000193    0.98  0.000132  ( 0.007293 -0.006258 -0.006321)
 21:    554.23   0.000111    0.56  0.000062  ( 0.005286  0.005737  0.001192)
 22:    630.86   0.000036    0.18  0.000018  ( 0.002347 -0.001307 -0.003217)
 23:    676.60   0.001019    5.15  0.000470  (-0.016037 -0.013092 -0.006420)
 24:    678.74   0.014812   74.85  0.006810  ( 0.022073 -0.038390  0.069636)
 25:    688.77   0.000015    0.08  0.000007  (-0.001435  0.000639 -0.002100)
 26:    770.27   0.008888   44.92  0.003601  (-0.015585  0.027399 -0.051061)
 27:    896.93   0.005419   27.38  0.001885  ( 0.012021 -0.019674  0.036793)
 28:    912.46   0.000423    2.14  0.000145  (-0.008881 -0.007529 -0.003039)
 29:    918.38   0.000150    0.76  0.000051  (-0.004488  0.005091  0.002188)
 30:    918.82   0.000610    3.08  0.000207  ( 0.008575 -0.007275 -0.008986)
 31:    940.81   0.000590    2.98  0.000196  (-0.004090  0.006696 -0.011584)
 32:    945.83   0.000595    3.01  0.000196  (-0.003476  0.006663 -0.011824)
 33:    965.51   0.000067    0.34  0.000022  ( 0.002197 -0.001919  0.003611)
 34:    965.79   0.000283    1.43  0.000091  ( 0.002293 -0.005202  0.007688)
 35:   1035.83   0.003589   18.14  0.001081  ( 0.023955  0.022167  0.003991)
 36:   1044.61   0.000238    1.20  0.000071  ( 0.004410 -0.005400 -0.004746)
 37:   1093.72   0.000053    0.27  0.000015  (-0.002212 -0.003060 -0.000899)
 38:   1109.56   0.005561   28.10  0.001564  ( 0.025646 -0.022115 -0.020428)
 39:   1117.30   0.000953    4.82  0.000266  ( 0.011286 -0.008997 -0.007612)
 40:   1171.52   0.001919    9.70  0.000511  ( 0.005184  0.017802 -0.012943)
 41:   1172.05   0.018733   94.67  0.004988  (-0.051255 -0.046855 -0.012861)
 42:   1174.91   0.002975   15.03  0.000790  (-0.008455  0.012260 -0.023840)
 43:   1196.43   0.000175    0.89  0.000046  (-0.005679  0.001287  0.003440)
 44:   1219.85   0.030605  154.66  0.007829  (-0.063254 -0.060512 -0.012908)
 45:   1271.99   0.009021   45.59  0.002213  ( 0.033417  0.032380  0.006934)
 46:   1345.13   0.000053    0.27  0.000012  ( 0.001227 -0.000131  0.003295)
 47:   1348.48   0.000194    0.98  0.000045  (-0.005070 -0.001583  0.004073)
 48:   1353.29   0.001383    6.99  0.000319  (-0.013085  0.009572  0.007486)
 49:   1371.06   0.009450   47.76  0.002151  (-0.032818 -0.032022 -0.006963)
 50:   1400.96   0.000319    1.61  0.000071  (-0.002868  0.007575  0.002329)
 51:   1403.79   0.004312   21.79  0.000959  (-0.012836  0.013326 -0.024824)
 52:   1404.36   0.004233   21.39  0.000941  (-0.014547  0.006825 -0.026123)
 53:   1408.60   0.005198   26.27  0.001152  (-0.022582 -0.024165  0.007601)
 54:   1416.39   0.003108   15.71  0.000685  (-0.014618  0.016509  0.014092)
 55:   1447.02   0.000020    0.10  0.000004  (-0.001894  0.000757 -0.000280)
 56:   1447.43   0.000026    0.13  0.000006  ( 0.000353 -0.000604 -0.002271)
 57:   1454.35   0.000448    2.26  0.000096  (-0.001760  0.003845 -0.008845)
 58:   1457.45   0.003548   17.93  0.000760  ( 0.023438 -0.008610 -0.011676)
 59:   1458.42   0.001078    5.45  0.000231  (-0.002838  0.014863  0.001319)
 60:   1463.64   0.002790   14.10  0.000595  (-0.004917  0.016116  0.017633)
 61:   1468.18   0.003672   18.56  0.000781  (-0.016956  0.016326  0.015048)
 62:   1469.54   0.000754    3.81  0.000160  ( 0.009666  0.008143  0.000593)
 63:   1498.80   0.001646    8.32  0.000343  (-0.013928 -0.012044 -0.001928)
 64:   1513.22   0.000234    1.18  0.000048  ( 0.004926 -0.003544 -0.003377)
 65:   1648.39   0.040937  206.88  0.007750  (-0.064168 -0.059036 -0.012132)
 66:   1650.96   0.002239   11.31  0.000423  (-0.012498  0.012191  0.010877)
 67:   3072.22   0.002579   13.03  0.000262  ( 0.000194  0.007935 -0.014105)
 68:   3072.70   0.002991   15.11  0.000304  ( 0.004950 -0.007646  0.014859)
 69:   3074.20   0.001430    7.23  0.000145  (-0.002084 -0.010804 -0.004904)
 70:   3074.61   0.001736    8.77  0.000176  ( 0.012548 -0.003412  0.002659)
 71:   3132.92   0.000597    3.02  0.000059  (-0.004562  0.004433  0.004359)
 72:   3133.21   0.000966    4.88  0.000096  ( 0.006355 -0.005172 -0.005394)
 73:   3176.32   0.000925    4.68  0.000091  ( 0.002896 -0.004724  0.007759)
 74:   3176.70   0.001256    6.35  0.000123  (-0.006912  0.007595 -0.004234)
 75:   3179.01   0.004798   24.25  0.000471  ( 0.013159 -0.012625 -0.011767)
 76:   3179.55   0.005242   26.49  0.000514  ( 0.014282 -0.010381 -0.014238)
 77:   3188.32   0.001387    7.01  0.000136  ( 0.005518 -0.000654  0.010242)
 78:   3188.58   0.001234    6.23  0.000121  ( 0.004119 -0.004817  0.008976)
 79:   3190.02   0.004406   22.27  0.000431  (-0.011282 -0.017303 -0.002096)
 80:   3190.06   0.001863    9.41  0.000182  (-0.012543 -0.004827  0.001266)
 81:   3299.20   0.011241   56.81  0.001063  (-0.021348  0.018035  0.016801)
 82:   3301.46   0.005382   27.20  0.000509  ( 0.016230  0.015319  0.003260)
 83:   3319.07   0.003648   18.44  0.000343  (-0.011088  0.011283  0.009632)

--------------------------
THERMOCHEMISTRY AT 298.15K
--------------------------

Temperature         ... 298.15 K
Pressure            ... 1.00 atm
Total Mass          ... 153.25 AMU

Throughout the following assumptions are being made:
  (1) The electronic state is orbitally nondegenerate
  (2) There are no thermally accessible electronically excited states
  (3) Hindered rotations indicated by low frequency modes are not
      treated as such but are treated as vibrations and this may
      cause some error
  (4) All equations used are the standard statistical mechanics
      equations for an ideal gas
  (5) All vibrations are strictly harmonic

freq.      38.50  E(vib)   ...       0.54
freq.      50.81  E(vib)   ...       0.52
freq.     119.82  E(vib)   ...       0.44
freq.     153.72  E(vib)   ...       0.40
freq.     156.81  E(vib)   ...       0.40
freq.     235.96  E(vib)   ...       0.32
freq.     252.46  E(vib)   ...       0.30
freq.     264.20  E(vib)   ...       0.29
freq.     274.71  E(vib)   ...       0.28
freq.     290.02  E(vib)   ...       0.27
freq.     302.28  E(vib)   ...       0.26
freq.     358.39  E(vib)   ...       0.22
freq.     398.06  E(vib)   ...       0.20
freq.     443.59  E(vib)   ...       0.17
freq.     455.96  E(vib)   ...       0.16
freq.     554.23  E(vib)   ...       0.12
freq.     630.86  E(vib)   ...       0.09
freq.     676.60  E(vib)   ...       0.08
freq.     678.74  E(vib)   ...       0.08
freq.     688.77  E(vib)   ...       0.07
freq.     770.27  E(vib)   ...       0.05
freq.     896.93  E(vib)   ...       0.03
freq.     912.46  E(vib)   ...       0.03
freq.     918.38  E(vib)   ...       0.03
freq.     918.82  E(vib)   ...       0.03
freq.     940.81  E(vib)   ...       0.03
freq.     945.83  E(vib)   ...       0.03
freq.     965.51  E(vib)   ...       0.03
freq.     965.79  E(vib)   ...       0.03
freq.    1035.83  E(vib)   ...       0.02
freq.    1044.61  E(vib)   ...       0.02
freq.    1093.72  E(vib)   ...       0.02
freq.    1109.56  E(vib)   ...       0.02
freq.    1117.30  E(vib)   ...       0.01
freq.    1171.52  E(vib)   ...       0.01
freq.    1172.05  E(vib)   ...       0.01
freq.    1174.91  E(vib)   ...       0.01
freq.    1196.43  E(vib)   ...       0.01
freq.    1219.85  E(vib)   ...       0.01
freq.    1271.99  E(vib)   ...       0.01
freq.    1345.13  E(vib)   ...       0.01
freq.    1348.48  E(vib)   ...       0.01
freq.    1353.29  E(vib)   ...       0.01
freq.    1371.06  E(vib)   ...       0.01
freq.    1400.96  E(vib)   ...       0.00
freq.    1403.79  E(vib)   ...       0.00
freq.    1404.36  E(vib)   ...       0.00
freq.    1408.60  E(vib)   ...       0.00
freq.    1416.39  E(vib)   ...       0.00
freq.    1447.02  E(vib)   ...       0.00
freq.    1447.43  E(vib)   ...       0.00
freq.    1454.35  E(vib)   ...       0.00
freq.    1457.45  E(vib)   ...       0.00
freq.    1458.42  E(vib)   ...       0.00
freq.    1463.64  E(vib)   ...       0.00
freq.    1468.18  E(vib)   ...       0.00
freq.    1469.54  E(vib)   ...       0.00
freq.    1498.80  E(vib)   ...       0.00
freq.    1513.22  E(vib)   ...       0.00
freq.    1648.39  E(vib)   ...       0.00
freq.    1650.96  E(vib)   ...       0.00
freq.    3072.22  E(vib)   ...       0.00
freq.    3072.70  E(vib)   ...       0.00
freq.    3074.20  E(vib)   ...       0.00
freq.    3074.61  E(vib)   ...       0.00
freq.    3132.92  E(vib)   ...       0.00
freq.    3133.21  E(vib)   ...       0.00
freq.    3176.32  E(vib)   ...       0.00
freq.    3176.70  E(vib)   ...       0.00
freq.    3179.01  E(vib)   ...       0.00
freq.    3179.55  E(vib)   ...       0.00
freq.    3188.32  E(vib)   ...       0.00
freq.    3188.58  E(vib)   ...       0.00
freq.    3190.02  E(vib)   ...       0.00
freq.    3190.06  E(vib)   ...       0.00
freq.    3299.20  E(vib)   ...       0.00
freq.    3301.46  E(vib)   ...       0.00
freq.    3319.07  E(vib)   ...       0.00

------------
INNER ENERGY
------------

The inner energy is: U= E(el) + E(ZPE) + E(vib) + E(rot) + E(trans)
    E(el)   - is the total energy from the electronic structure calculation
              = E(kin-el) + E(nuc-el) + E(el-el) + E(nuc-nuc)
    E(ZPE)  - the the zero temperature vibrational energy from the frequency calculation
    E(vib)  - the the finite temperature correction to E(ZPE) due to population
              of excited vibrational states
    E(rot)  - is the rotational thermal energy
    E(trans)- is the translational thermal energy

Summary of contributions to the inner energy U:
Electronic energy                ...   -462.13702791 Eh
Zero point energy                ...      0.25571215 Eh     160.46 kcal/mol
Thermal vibrational correction   ...      0.00914182 Eh       5.74 kcal/mol
Thermal rotational correction    ...      0.00141627 Eh       0.89 kcal/mol
Thermal translational correction ...      0.00141627 Eh       0.89 kcal/mol
-----------------------------------------------------------------------
Total thermal energy                   -461.86934139 Eh

Summary of corrections to the electronic energy:
(perhaps to be used in another calculation)
Total thermal correction                  0.01197436 Eh       7.51 kcal/mol
Non-thermal (ZPE) correction              0.25571215 Eh     160.46 kcal/mol
-----------------------------------------------------------------------
Total correction                          0.26768651 Eh     167.98 kcal/mol

--------
ENTHALPY
--------

The enthalpy is H = U + kB*T
                kB is Boltzmann's constant
Total free energy                 ...   -461.86934139 Eh
Thermal Enthalpy correction       ...      0.00094421 Eh       0.59 kcal/mol
-----------------------------------------------------------------------
Total Enthalpy                    ...   -461.86839719 Eh

Note: Only C1 symmetry has been detected, increase convergence thresholds
      if your molecule has a higher symmetry. Symmetry factor of 1.0 is
      used for the rotational entropy correction.

Note: Rotational entropy computed according to Herzberg
Infrared and Raman Spectra, Chapter V,1, Van Nostrand Reinhold, 1945
Point Group:  C1, Symmetry Number:   1
Rotational constants in cm-1:     0.089660     0.018409     0.017771

Vibrational entropy computed according to the QRRHO of S. Grimme
Chem.Eur.J. 2012 18 9955

-------
ENTROPY
-------

The entropy contributions are T*S = T*(S(el)+S(vib)+S(rot)+S(trans))
     S(el)   - electronic entropy
     S(vib)  - vibrational entropy
     S(rot)  - rotational entropy

                             ****ORCA TERMINATED NORMALLY****
TOTAL RUN TIME: 0 days 0 hours 26 minutes 8 seconds 927 msec
