                         Program Version 5.0.4 -  RELEASE  -
|  1> # ORCA 5.0.4 - 4.inp # write input file
|  2> # Basic Mode
|  3> #
|  4> ! Freq wB97X Def2-SVP D4 SlowConv TightSCF DEFGRID2 Def2/J RIJCOSX
|  5>
|  6>
|  7>
|  8> %maxcore 4500
|  9>
| 10> %geom
| 11> Maxiter 150
| 12> END
| 13>
| 14> * xyzfile 0 1 4.xyz
| 15>
| 16>                          ****END OF INPUT****

CARTESIAN COORDINATES (ANGSTROEM)
---------------------------------
  C      0.000000    2.456466    0.553232
  C     -0.000000   -2.456466    0.553232
  N      0.000001    1.063252    0.099616
  N      0.000001   -1.063252    0.099616
  C      0.000002    0.678075   -1.231203
  C      0.000001   -0.678075   -1.231203
  C      0.000004    0.000000    0.946651
  C      1.268001    3.176646    0.107564
  C     -1.268002    3.176644    0.107567
  C     -1.268002   -3.176644    0.107564
  C      1.268001   -3.176646    0.107567
  H      0.000001    1.385232   -2.059596
  H      0.000000   -1.385232   -2.059596
  H      0.000002    2.381327    1.651062
  H     -0.000001   -2.381327    1.651062
  H      1.312351    3.262086   -0.990520
  H     -1.312355    3.262083   -0.990518
  H     -1.312353   -3.262083   -0.990520
  H      1.312354   -3.262084   -0.990518
  H      1.292425    4.193752    0.526650
  H     -1.292427    4.193750    0.526652
  H     -1.292426   -4.193751    0.526649
  H      1.292423   -4.193753    0.526651
  H      2.164460    2.638276    0.450971
  H     -2.164460    2.638273    0.450976
  H     -2.164460   -2.638274    0.450972
  H      2.164459   -2.638277    0.450977

 Total Charge           Charge          ....    0
 Multiplicity           Mult            ....    1
 Number of Electrons    NEL             ....   84
 Basis Dimension        Dim             ....  234

ORBITAL ENERGIES
----------------

  NO   OCC          E(Eh)            E(eV)
   0   2.0000     -14.438117      -392.8811
   1   2.0000     -14.438117      -392.8811
   2   2.0000     -10.307479      -280.4808
   3   2.0000     -10.307445      -280.4798
   4   2.0000     -10.292604      -280.0760
   5   2.0000     -10.292024      -280.0602
   6   2.0000     -10.267602      -279.3957
   7   2.0000     -10.267598      -279.3955
   8   2.0000     -10.267596      -279.3955
   9   2.0000     -10.267591      -279.3954
  10   2.0000     -10.261831      -279.2386
  11   2.0000      -1.139648       -31.0114
  12   2.0000      -1.035439       -28.1757
  13   2.0000      -0.934627       -25.4325
  14   2.0000      -0.883581       -24.0435
  15   2.0000      -0.860489       -23.4151
  16   2.0000      -0.812067       -22.0975
  17   2.0000      -0.811729       -22.0883
  18   2.0000      -0.758258       -20.6333
  19   2.0000      -0.743758       -20.2387
  20   2.0000      -0.671741       -18.2790
  21   2.0000      -0.660762       -17.9803
  22   2.0000      -0.622536       -16.9401
  23   2.0000      -0.586445       -15.9580
  24   2.0000      -0.571872       -15.5614
  25   2.0000      -0.560700       -15.2574
  26   2.0000      -0.558895       -15.2083
  27   2.0000      -0.536801       -14.6071
  28   2.0000      -0.534096       -14.5335
  29   2.0000      -0.528285       -14.3754
  30   2.0000      -0.503864       -13.7108
  31   2.0000      -0.497614       -13.5408
  32   2.0000      -0.486916       -13.2497
  33   2.0000      -0.485349       -13.2070
  34   2.0000      -0.466977       -12.7071
  35   2.0000      -0.459043       -12.4912
  36   2.0000      -0.448322       -12.1995
  37   2.0000      -0.442769       -12.0484
  38   2.0000      -0.434295       -11.8178
  39   2.0000      -0.365810        -9.9542
  40   2.0000      -0.317407        -8.6371
  41   2.0000      -0.301037        -8.1916
  42   0.0000       0.125377         3.4117
  43   0.0000       0.141150         3.8409
  44   0.0000       0.143094         3.8938
  45   0.0000       0.146094         3.9754
  46   0.0000       0.171424         4.6647

MULLIKEN ATOMIC CHARGES
-----------------------
   0 C :    0.001888
   1 C :    0.001888
   2 N :   -0.219855
   3 N :   -0.219855
   4 C :    0.032036
   5 C :    0.032035
   6 C :   -0.127382
   7 C :   -0.000764
   8 C :   -0.000764
   9 C :   -0.000765
  10 C :   -0.000764
  11 H :    0.027952
  12 H :    0.027952
  13 H :    0.036807
  14 H :    0.036807
  15 H :    0.016037
  16 H :    0.016037
  17 H :    0.016037
  18 H :    0.016037
  19 H :    0.032022
  20 H :    0.032022
  21 H :    0.032022
  22 H :    0.032022
  23 H :    0.045137
  24 H :    0.045137
  25 H :    0.045136
  26 H :    0.045136
Sum of atomic charges:   -0.0000000

LOEWDIN ATOMIC CHARGES
----------------------
   0 C :    0.028434
   1 C :    0.028434
   2 N :    0.028132
   3 N :    0.028132
   4 C :   -0.037470
   5 C :   -0.037470
   6 C :   -0.255278
   7 C :   -0.059868
   8 C :   -0.059868
   9 C :   -0.059868
  10 C :   -0.059868
  11 H :    0.025002
  12 H :    0.025002
  13 H :    0.033815
  14 H :    0.033815
  15 H :    0.021295
  16 H :    0.021296
  17 H :    0.021295
  18 H :    0.021296
  19 H :    0.030241
  20 H :    0.030241
  21 H :    0.030241
  22 H :    0.030241
  23 H :    0.033195
  24 H :    0.033195
  25 H :    0.033195
  26 H :    0.033195

  Mayer bond orders larger than 0.100000
B(  0-C ,  2-N ) :   0.9192 B(  0-C ,  7-C ) :   1.0703 B(  0-C ,  8-C ) :   1.0703
B(  0-C , 13-H ) :   0.9307 B(  1-C ,  3-N ) :   0.9192 B(  1-C ,  9-C ) :   1.0703
B(  1-C , 10-C ) :   1.0703 B(  1-C , 14-H ) :   0.9307 B(  2-N ,  4-C ) :   1.1173
B(  2-N ,  6-C ) :   1.2194 B(  3-N ,  5-C ) :   1.1173 B(  3-N ,  6-C ) :   1.2194
B(  4-C ,  5-C ) :   1.6446 B(  4-C , 11-H ) :   0.9859 B(  5-C , 12-H ) :   0.9859
B(  7-C , 15-H ) :   0.9635 B(  7-C , 19-H ) :   0.9725 B(  7-C , 23-H ) :   0.9691
B(  8-C , 16-H ) :   0.9635 B(  8-C , 20-H ) :   0.9725 B(  8-C , 24-H ) :   0.9691
B(  9-C , 17-H ) :   0.9635 B(  9-C , 21-H ) :   0.9725 B(  9-C , 25-H ) :   0.9691
B( 10-C , 18-H ) :   0.9635 B( 10-C , 22-H ) :   0.9725 B( 10-C , 26-H ) :   0.9691

Dispersion correction           -0.004100675
FINAL SINGLE POINT ENERGY      -461.619783064494

DIPOLE MOMENT
-------------
                                X             Y             Z
Electronic contribution:      0.00001       0.00000       0.13685
Nuclear contribution   :     -0.00001      -0.00000      -1.02766
                        -----------------------------------------
Total Dipole Moment    :     -0.00000       0.00000      -0.89081
                        -----------------------------------------
Magnitude (a.u.)       :      0.89081
Magnitude (Debye)      :      2.26426

Dispersion correction in the Hessian             ... Starting D4

VIBRATIONAL FREQUENCIES
-----------------------

Scaling factor for frequencies =  1.000000000  (already applied!)

   0:         0.00 cm**-1
   1:         0.00 cm**-1
   2:         0.00 cm**-1
   3:         0.00 cm**-1
   4:         0.00 cm**-1
   5:         0.00 cm**-1
   6:        16.76 cm**-1
   7:        36.30 cm**-1
   8:       116.27 cm**-1
   9:       152.35 cm**-1
  10:       161.51 cm**-1
  11:       233.36 cm**-1
  12:       233.81 cm**-1
  13:       253.28 cm**-1
  14:       265.81 cm**-1
  15:       272.21 cm**-1
  16:       302.03 cm**-1
  17:       354.77 cm**-1
  18:       403.60 cm**-1
  19:       445.63 cm**-1
  20:       459.76 cm**-1
  21:       572.86 cm**-1
  22:       635.15 cm**-1
  23:       665.64 cm**-1
  24:       681.43 cm**-1
  25:       690.94 cm**-1
  26:       738.93 cm**-1
  27:       866.42 cm**-1
  28:       908.90 cm**-1
  29:       912.81 cm**-1
  30:       936.28 cm**-1
  31:       936.38 cm**-1
  32:       957.60 cm**-1
  33:       957.76 cm**-1
  34:      1021.56 cm**-1
  35:      1026.22 cm**-1
  36:      1074.06 cm**-1
  37:      1094.17 cm**-1
  38:      1110.03 cm**-1
  39:      1173.76 cm**-1
  40:      1173.80 cm**-1
  41:      1191.64 cm**-1
  42:      1196.23 cm**-1
  43:      1250.24 cm**-1
  44:      1318.07 cm**-1
  45:      1325.23 cm**-1
  46:      1354.62 cm**-1
  47:      1355.01 cm**-1
  48:      1402.08 cm**-1
  49:      1406.25 cm**-1
  50:      1406.88 cm**-1
  51:      1407.05 cm**-1
  52:      1411.18 cm**-1
  53:      1424.73 cm**-1
  54:      1446.63 cm**-1
  55:      1460.56 cm**-1
  56:      1461.04 cm**-1
  57:      1465.97 cm**-1
  58:      1465.97 cm**-1
  59:      1473.48 cm**-1
  60:      1476.37 cm**-1
  61:      1479.19 cm**-1
  62:      1490.24 cm**-1
  63:      1494.50 cm**-1
  64:      1655.55 cm**-1
  65:      3063.22 cm**-1
  66:      3063.26 cm**-1
  67:      3065.71 cm**-1
  68:      3065.92 cm**-1
  69:      3130.51 cm**-1
  70:      3130.76 cm**-1
  71:      3161.04 cm**-1
  72:      3161.04 cm**-1
  73:      3166.96 cm**-1
  74:      3167.20 cm**-1
  75:      3176.18 cm**-1
  76:      3176.25 cm**-1
  77:      3178.15 cm**-1
  78:      3178.32 cm**-1
  79:      3274.85 cm**-1
  80:      3296.99 cm**-1

IR SPECTRUM
-----------

 Mode   freq       eps      Int      T**2         TX        TY        TZ
       cm**-1   L/(mol*cm) km/mol    a.u.
----------------------------------------------------------------------------
  6:     16.76   0.000019    0.10  0.000363  ( 0.019040  0.000000 -0.000000)
  7:     36.30   0.000000    0.00  0.000000  ( 0.000000  0.000000 -0.000000)
  8:    116.27   0.001811    9.15  0.004860  (-0.069716  0.000000  0.000000)
  9:    152.35   0.000000    0.00  0.000000  (-0.000000  0.000000 -0.000001)
 10:    161.51   0.000252    1.27  0.000486  (-0.000000  0.000000 -0.022054)
 11:    233.36   0.000000    0.00  0.000000  (-0.000003  0.000000  0.000000)
 12:    233.81   0.000025    0.13  0.000034  (-0.005822 -0.000000  0.000000)
 13:    253.28   0.000083    0.42  0.000102  ( 0.000000 -0.010088  0.000000)
 14:    265.81   0.000003    0.01  0.000003  ( 0.000000  0.000000  0.001758)
 15:    272.21   0.000000    0.00  0.000000  ( 0.000000  0.000000 -0.000427)
 16:    302.03   0.000536    2.71  0.000554  (-0.000000 -0.023534 -0.000000)
 17:    354.77   0.000421    2.13  0.000370  ( 0.000000 -0.019234  0.000000)
 18:    403.60   0.002667   13.48  0.002062  ( 0.045415  0.000000 -0.000000)
 19:    445.63   0.000000    0.00  0.000000  ( 0.000000  0.000000  0.000000)
 20:    459.76   0.000001    0.01  0.000001  ( 0.000000  0.000000 -0.000991)
 21:    572.86   0.002650   13.39  0.001443  (-0.000000  0.037991 -0.000000)
 22:    635.15   0.000103    0.52  0.000050  (-0.000000 -0.000000 -0.007105)
 23:    665.64   0.001004    5.08  0.000471  (-0.021700  0.000000 -0.000000)
 24:    681.43   0.000000    0.00  0.000000  ( 0.000000 -0.000000 -0.000000)
 25:    690.94   0.002098   10.60  0.000947  ( 0.000000  0.030779 -0.000000)
 26:    738.93   0.007231   36.54  0.003054  (-0.055261 -0.000000  0.000000)
 27:    866.42   0.000000    0.00  0.000000  (-0.000000 -0.000000  0.000000)
 28:    908.90   0.001529    7.73  0.000525  (-0.000000 -0.022911  0.000000)
 29:    912.81   0.000238    1.20  0.000081  (-0.000000  0.000001  0.009023)
 30:    936.28   0.000000    0.00  0.000000  (-0.000040  0.000000 -0.000000)
 31:    936.38   0.000296    1.50  0.000099  (-0.009930  0.000000  0.000000)
 32:    957.60   0.000104    0.53  0.000034  (-0.005827 -0.000000 -0.000000)
 33:    957.76   0.000000    0.00  0.000000  (-0.000005 -0.000000  0.000000)
 34:   1021.56   0.002471   12.49  0.000755  (-0.000000  0.027475 -0.000000)
 35:   1026.22   0.000025    0.13  0.000008  ( 0.000000 -0.000000 -0.002763)
 36:   1074.06   0.000243    1.23  0.000071  (-0.000000  0.008405 -0.000000)
 37:   1094.17   0.001757    8.88  0.000501  (-0.000000  0.000000  0.022382)
 38:   1110.03   0.002049   10.36  0.000576  (-0.000000 -0.000000  0.024002)
 39:   1173.76   0.002255   11.40  0.000600  ( 0.024487  0.000000 -0.000000)
 40:   1173.80   0.000000    0.00  0.000000  (-0.000037 -0.000000 -0.000000)
 41:   1191.64   0.000009    0.04  0.000002  ( 0.000000  0.000000  0.001524)
 42:   1196.23   0.000005    0.02  0.000001  ( 0.000001 -0.001126  0.000000)
 43:   1250.24   0.020826  105.24  0.005198  ( 0.000000 -0.072098  0.000000)
 44:   1318.07   0.003746   18.93  0.000887  (-0.000000 -0.029781 -0.000000)
 45:   1325.23   0.000125    0.63  0.000029  (-0.000000  0.000001 -0.005423)
 46:   1354.62   0.000000    0.00  0.000000  ( 0.000001  0.000000  0.000000)
 47:   1355.01   0.000033    0.17  0.000008  ( 0.002748  0.000000 -0.000000)
 48:   1402.08   0.000050    0.25  0.000011  ( 0.000003  0.003328  0.000000)
 49:   1406.25   0.000000    0.00  0.000000  (-0.000002  0.000000 -0.000007)
 50:   1406.88   0.007946   40.16  0.001763  ( 0.041983  0.000001 -0.000010)
 51:   1407.05   0.000699    3.53  0.000155  (-0.000035 -0.000000 -0.012448)
 52:   1411.18   0.001014    5.12  0.000224  ( 0.000000 -0.000000 -0.014972)
 53:   1424.73   0.011421   57.72  0.002501  (-0.000001  0.050015 -0.000000)
 54:   1446.63   0.002719   13.74  0.000587  ( 0.000000 -0.000000  0.024219)
 55:   1460.56   0.000000    0.00  0.000000  ( 0.000001  0.000000 -0.000000)
 56:   1461.04   0.000009    0.04  0.000002  ( 0.001375  0.000000  0.000000)
 57:   1465.97   0.000252    1.27  0.000054  (-0.007328 -0.000000  0.000000)
 58:   1465.97   0.000000    0.00  0.000000  (-0.000149  0.000000 -0.000000)
 59:   1473.48   0.002880   14.56  0.000610  ( 0.000000  0.024699  0.000000)
 60:   1476.37   0.003746   18.93  0.000792  ( 0.000000  0.000001 -0.028140)
 61:   1479.19   0.007356   37.18  0.001552  ( 0.000000  0.039395  0.000001)
 62:   1490.24   0.001384    6.99  0.000290  (-0.000000  0.000002  0.017021)
 63:   1494.50   0.010370   52.41  0.002165  ( 0.000000 -0.046534  0.000000)
 64:   1655.55   0.000023    0.11  0.000004  ( 0.000000 -0.000000  0.002067)
 65:   3063.22   0.000000    0.00  0.000000  (-0.000133  0.000001 -0.000010)
 66:   3063.26   0.005418   27.38  0.000552  (-0.023494  0.000014 -0.000001)
 67:   3065.71   0.004114   20.79  0.000419  (-0.000017 -0.020465  0.000015)
 68:   3065.92   0.001933    9.77  0.000197  (-0.000001  0.000023  0.014026)
 69:   3130.51   0.000029    0.15  0.000003  (-0.000000 -0.000000 -0.001712)
 70:   3130.76   0.000128    0.65  0.000013  (-0.000001 -0.003568  0.000000)
 71:   3161.04   0.000000    0.00  0.000000  ( 0.000080  0.000000  0.000013)
 72:   3161.04   0.000940    4.75  0.000093  (-0.009632  0.000003  0.000001)
 73:   3166.96   0.001366    6.90  0.000135  ( 0.000002  0.011601  0.000036)
 74:   3167.20   0.011922   60.25  0.001175  ( 0.000000 -0.000017  0.034274)
 75:   3176.18   0.000000    0.00  0.000000  ( 0.000120  0.000005  0.000003)
 76:   3176.25   0.002164   10.94  0.000213  ( 0.014581 -0.000005  0.000001)
 77:   3178.15   0.010105   51.07  0.000992  (-0.000002 -0.031500 -0.000007)
 78:   3178.32   0.000219    1.11  0.000022  ( 0.000002  0.000015 -0.004640)
 79:   3274.85   0.000107    0.54  0.000010  (-0.000000  0.003194  0.000000)
 80:   3296.99   0.000083    0.42  0.000008  (-0.000000 -0.000000  0.002797)

--------------------------
THERMOCHEMISTRY AT 298.15K
--------------------------

Temperature         ... 298.15 K
Pressure            ... 1.00 atm
Total Mass          ... 152.24 AMU

Throughout the following assumptions are being made:
  (1) The electronic state is orbitally nondegenerate
  (2) There are no thermally accessible electronically excited states
  (3) Hindered rotations indicated by low frequency modes are not
      treated as such but are treated as vibrations and this may
      cause some error
  (4) All equations used are the standard statistical mechanics
      equations for an ideal gas
  (5) All vibrations are strictly harmonic

freq.      16.76  E(vib)   ...       0.57
freq.      36.30  E(vib)   ...       0.54
freq.     116.27  E(vib)   ...       0.44
freq.     152.35  E(vib)   ...       0.40
freq.     161.51  E(vib)   ...       0.39
freq.     233.36  E(vib)   ...       0.32
freq.     233.81  E(vib)   ...       0.32
freq.     253.28  E(vib)   ...       0.30
freq.     265.81  E(vib)   ...       0.29
freq.     272.21  E(vib)   ...       0.29
freq.     302.03  E(vib)   ...       0.26
freq.     354.77  E(vib)   ...       0.22
freq.     403.60  E(vib)   ...       0.19
freq.     445.63  E(vib)   ...       0.17
freq.     459.76  E(vib)   ...       0.16
freq.     572.86  E(vib)   ...       0.11
freq.     635.15  E(vib)   ...       0.09
freq.     665.64  E(vib)   ...       0.08
freq.     681.43  E(vib)   ...       0.08
freq.     690.94  E(vib)   ...       0.07
freq.     738.93  E(vib)   ...       0.06
freq.     866.42  E(vib)   ...       0.04
freq.     908.90  E(vib)   ...       0.03
freq.     912.81  E(vib)   ...       0.03
freq.     936.28  E(vib)   ...       0.03
freq.     936.38  E(vib)   ...       0.03
freq.     957.60  E(vib)   ...       0.03
freq.     957.76  E(vib)   ...       0.03
freq.    1021.56  E(vib)   ...       0.02
freq.    1026.22  E(vib)   ...       0.02
freq.    1074.06  E(vib)   ...       0.02
freq.    1094.17  E(vib)   ...       0.02
freq.    1110.03  E(vib)   ...       0.02
freq.    1173.76  E(vib)   ...       0.01
freq.    1173.80  E(vib)   ...       0.01
freq.    1191.64  E(vib)   ...       0.01
freq.    1196.23  E(vib)   ...       0.01
freq.    1250.24  E(vib)   ...       0.01
freq.    1318.07  E(vib)   ...       0.01
freq.    1325.23  E(vib)   ...       0.01
freq.    1354.62  E(vib)   ...       0.01
freq.    1355.01  E(vib)   ...       0.01
freq.    1402.08  E(vib)   ...       0.00
freq.    1406.25  E(vib)   ...       0.00
freq.    1406.88  E(vib)   ...       0.00
freq.    1407.05  E(vib)   ...       0.00
freq.    1411.18  E(vib)   ...       0.00
freq.    1424.73  E(vib)   ...       0.00
freq.    1446.63  E(vib)   ...       0.00
freq.    1460.56  E(vib)   ...       0.00
freq.    1461.04  E(vib)   ...       0.00
freq.    1465.97  E(vib)   ...       0.00
freq.    1465.97  E(vib)   ...       0.00
freq.    1473.48  E(vib)   ...       0.00
freq.    1476.37  E(vib)   ...       0.00
freq.    1479.19  E(vib)   ...       0.00
freq.    1490.24  E(vib)   ...       0.00
freq.    1494.50  E(vib)   ...       0.00
freq.    1655.55  E(vib)   ...       0.00
freq.    3063.22  E(vib)   ...       0.00
freq.    3063.26  E(vib)   ...       0.00
freq.    3065.71  E(vib)   ...       0.00
freq.    3065.92  E(vib)   ...       0.00
freq.    3130.51  E(vib)   ...       0.00
freq.    3130.76  E(vib)   ...       0.00
freq.    3161.04  E(vib)   ...       0.00
freq.    3161.04  E(vib)   ...       0.00
freq.    3166.96  E(vib)   ...       0.00
freq.    3167.20  E(vib)   ...       0.00
freq.    3176.18  E(vib)   ...       0.00
freq.    3176.25  E(vib)   ...       0.00
freq.    3178.15  E(vib)   ...       0.00
freq.    3178.32  E(vib)   ...       0.00
freq.    3274.85  E(vib)   ...       0.00
freq.    3296.99  E(vib)   ...       0.00

------------
INNER ENERGY
------------

The inner energy is: U= E(el) + E(ZPE) + E(vib) + E(rot) + E(trans)
    E(el)   - is the total energy from the electronic structure calculation
              = E(kin-el) + E(nuc-el) + E(el-el) + E(nuc-nuc)
    E(ZPE)  - the the zero temperature vibrational energy from the frequency calculation
    E(vib)  - the the finite temperature correction to E(ZPE) due to population
              of excited vibrational states
    E(rot)  - is the rotational thermal energy
    E(trans)- is the translational thermal energy

Summary of contributions to the inner energy U:
Electronic energy                ...   -461.61978306 Eh
Zero point energy                ...      0.24175286 Eh     151.70 kcal/mol
Thermal vibrational correction   ...      0.00925649 Eh       5.81 kcal/mol
Thermal rotational correction    ...      0.00141627 Eh       0.89 kcal/mol
Thermal translational correction ...      0.00141627 Eh       0.89 kcal/mol
-----------------------------------------------------------------------
Total thermal energy                   -461.36594117 Eh

Summary of corrections to the electronic energy:
(perhaps to be used in another calculation)
Total thermal correction                  0.01208903 Eh       7.59 kcal/mol
Non-thermal (ZPE) correction              0.24175286 Eh     151.70 kcal/mol
-----------------------------------------------------------------------
Total correction                          0.25384189 Eh     159.29 kcal/mol

--------
ENTHALPY
--------

The enthalpy is H = U + kB*T
                kB is Boltzmann's constant
Total free energy                 ...   -461.36594117 Eh
Thermal Enthalpy correction       ...      0.00094421 Eh       0.59 kcal/mol
-----------------------------------------------------------------------
Total Enthalpy                    ...   -461.36499696 Eh

Note: Rotational entropy computed according to Herzberg
Infrared and Raman Spectra, Chapter V,1, Van Nostrand Reinhold, 1945
Point Group:  C2v, Symmetry Number:   2
Rotational constants in cm-1:     0.091078     0.018628     0.017944

Vibrational entropy computed according to the QRRHO of S. Grimme
Chem.Eur.J. 2012 18 9955

-------
ENTROPY
-------

The entropy contributions are T*S = T*(S(el)+S(vib)+S(rot)+S(trans))
     S(el)   - electronic entropy
     S(vib)  - vibrational entropy
     S(rot)  - rotational entropy
     S(trans)- translational entropy
The entropies will be listed as multiplied by the temperature to get
units of energy

Electronic entropy                ...      0.00000000 Eh      0.00 kcal/mol
Vibrational entropy               ...      0.01630976 Eh     10.23 kcal/mol
Rotational entropy                ...      0.01376592 Eh      8.64 kcal/mol
Translational entropy             ...      0.01946649 Eh     12.22 kcal/mol

                             ****ORCA TERMINATED NORMALLY****
TOTAL RUN TIME: 0 days 0 hours 28 minutes 28 seconds 755 msec
