                         Program Version 5.0.3 -  RELEASE  -
|  1> # ORCAForces - ../2023_02/pKa_prediction/Yates_carbene_xyzs/Our_level/Water/tBuH+_Water.inp
|  2> # Basic Mode
|  3> #
|  4> ! Opt FREQ wB97X D4 Def2-SVP SlowConv TightSCF DEFGRID2 Def2/J RIJCOSX CPCM(Water)
|  5>
|  6> %maxcore 4500
|  7>
|  8> %PAL NPROCS 4 END
|  9>
| 10> %geom
| 11> Maxiter 150
| 12> END
| 13>
| 14> * xyzfile 1 1 tBuH+.xyz
| 15>
| 16>                          ****END OF INPUT****
 Total Charge           Charge          ....    1
 Multiplicity           Mult            ....    1
 Number of Electrons    NEL             ....  100
Dispersion correction           -0.005548642
FINAL SINGLE POINT ENERGY      -540.692178921221
Dispersion correction            ... Starting D4
Dispersion correction           -0.005585205
FINAL SINGLE POINT ENERGY      -540.694266421133
Dispersion correction            ... Starting D4
Dispersion correction           -0.005582351
FINAL SINGLE POINT ENERGY      -540.694310654464
Dispersion correction            ... Starting D4
Dispersion correction           -0.005582933
FINAL SINGLE POINT ENERGY      -540.694322442917
Dispersion correction            ... Starting D4
                    ***********************HURRAY********************

CARTESIAN COORDINATES (ANGSTROEM)
---------------------------------
  C     -0.000000    2.514526    0.209467
  C      0.000000   -2.514526    0.209467
  N      0.000001    1.087594   -0.242693
  N      0.000002   -1.087595   -0.242694
  C      0.000003    0.679517   -1.560063
  C      0.000004   -0.679517   -1.560064
  C      0.000001   -0.000000    0.526977
  H      0.000003    1.379780   -2.392700
  H      0.000005   -1.379780   -2.392701
  H     -0.000000   -0.000000    1.613685
  C      1.263439    3.178849   -0.339501
  C      1.263437   -3.178850   -0.339505
  C     -1.263441   -3.178846   -0.339500
  C     -1.263439    3.178847   -0.339504
  H      1.283147    3.169933   -1.439640
  H      1.283142   -3.169936   -1.439644
  H     -1.283149   -3.169933   -1.439639
  H     -1.283145    3.169933   -1.439643
  H      1.290552    4.227511   -0.009167
  H      1.290551   -4.227511   -0.009170
  H     -1.290559   -4.227507   -0.009163
  H     -1.290555    4.227508   -0.009168
  H      2.164862    2.671555    0.036530
  H      2.164862   -2.671556    0.036522
  H     -2.164862   -2.671547    0.036529
  H     -2.164862    2.671551    0.036525
  C     -0.000003    2.561086    1.734190
  C      0.000003   -2.561086    1.734189
  H     -0.000004    3.615426    2.044234
  H      0.000003   -3.615426    2.044234
  H     -0.898324    2.086795    2.158388
  H     -0.898318   -2.086796    2.158390
  H      0.898325   -2.086797    2.158388
  H      0.898319    2.086797    2.158391

 Multiplicity           Mult            ....    1
 Number of Electrons    NEL             ....  100
 Basis Dimension        Dim             ....  287

ORBITAL ENERGIES
----------------

  NO   OCC          E(Eh)            E(eV)
   0   2.0000     -14.507891      -394.7798
   1   2.0000     -14.507842      -394.7784
   2   2.0000     -10.383612      -282.5525
   3   2.0000     -10.345746      -281.5221
   4   2.0000     -10.345721      -281.5214
   5   2.0000     -10.333224      -281.1813
   6   2.0000     -10.332638      -281.1654
   7   2.0000     -10.276301      -279.6324
   8   2.0000     -10.276289      -279.6320
   9   2.0000     -10.273869      -279.5662
  10   2.0000     -10.273865      -279.5661
  11   2.0000     -10.273854      -279.5658
  12   2.0000     -10.273852      -279.5657
  13   2.0000      -1.213283       -33.0151
  14   2.0000      -1.095265       -29.8037
  15   2.0000      -0.980238       -26.6736
  16   2.0000      -0.932792       -25.3825
  17   2.0000      -0.921460       -25.0742
  18   2.0000      -0.832606       -22.6564
  19   2.0000      -0.825448       -22.4616
  20   2.0000      -0.823442       -22.4070
  21   2.0000      -0.822781       -22.3890
  22   2.0000      -0.792170       -21.5560
  23   2.0000      -0.764787       -20.8109
  24   2.0000      -0.724664       -19.7191
  25   2.0000      -0.702654       -19.1202
  26   2.0000      -0.644201       -17.5296
  27   2.0000      -0.627814       -17.0837
  28   2.0000      -0.605514       -16.4769
  29   2.0000      -0.587280       -15.9807
  30   2.0000      -0.582850       -15.8602
  31   2.0000      -0.577182       -15.7059
  32   2.0000      -0.576662       -15.6918
  33   2.0000      -0.555420       -15.1138
  34   2.0000      -0.554262       -15.0822
  35   2.0000      -0.545608       -14.8468
  36   2.0000      -0.518993       -14.1225
  37   2.0000      -0.501734       -13.6529
  38   2.0000      -0.499197       -13.5838
  39   2.0000      -0.497145       -13.5280
  40   2.0000      -0.495958       -13.4957
  41   2.0000      -0.487193       -13.2572
  42   2.0000      -0.480265       -13.0687
  43   2.0000      -0.480043       -13.0626
  44   2.0000      -0.467469       -12.7205
  45   2.0000      -0.454178       -12.3588
  46   2.0000      -0.453327       -12.3356
  47   2.0000      -0.451169       -12.2769
  48   2.0000      -0.409969       -11.1558
  49   2.0000      -0.375163       -10.2087
  50   0.0000       0.063199         1.7197
  51   0.0000       0.093627         2.5477
  52   0.0000       0.131024         3.5653
  53   0.0000       0.143157         3.8955
  54   0.0000       0.164295         4.4707

MULLIKEN ATOMIC CHARGES
-----------------------
   0 C :   -0.239354
   1 C :   -0.239354
   2 N :   -0.179452
   3 N :   -0.179453
   4 C :    0.057618
   5 C :    0.057618
   6 C :    0.217877
   7 H :    0.106300
   8 H :    0.106300
   9 H :    0.128062
  10 C :    0.036708
  11 C :    0.036706
  12 C :    0.036707
  13 C :    0.036707
  14 H :    0.050161
  15 H :    0.050161
  16 H :    0.050162
  17 H :    0.050162
  18 H :    0.058021
  19 H :    0.058021
  20 H :    0.058021
  21 H :    0.058021
  22 H :    0.052716
  23 H :    0.052716
  24 H :    0.052716
  25 H :    0.052716
  26 C :    0.001700
  27 C :    0.001701
  28 H :    0.064204
  29 H :    0.064204
  30 H :    0.060402
  31 H :    0.060402
  32 H :    0.060402
  33 H :    0.060402
Sum of atomic charges:    1.0000000

LOEWDIN ATOMIC CHARGES
----------------------
   0 C :    0.017080
   1 C :    0.017080
   2 N :    0.097155
   3 N :    0.097155
   4 C :    0.017671
   5 C :    0.017671
   6 C :    0.120148
   7 H :    0.059805
   8 H :    0.059805
   9 H :    0.063256
  10 C :   -0.044924
  11 C :   -0.044924
  12 C :   -0.044924
  13 C :   -0.044924
  14 H :    0.034747
  15 H :    0.034747
  16 H :    0.034747
  17 H :    0.034747
  18 H :    0.043709
  19 H :    0.043709
  20 H :    0.043709
  21 H :    0.043709
  22 H :    0.036967
  23 H :    0.036967
  24 H :    0.036967
  25 H :    0.036967
  26 C :   -0.049057
  27 C :   -0.049057
  28 H :    0.048652
  29 H :    0.048652
  30 H :    0.037998
  31 H :    0.037997
  32 H :    0.037998
  33 H :    0.037997

  Mayer bond orders larger than 0.100000
B(  0-C ,  2-N ) :   0.8098 B(  0-C , 10-C ) :   1.0384 B(  0-C , 13-C ) :   1.0384
B(  0-C , 26-C ) :   1.0649 B(  1-C ,  3-N ) :   0.8098 B(  1-C , 11-C ) :   1.0384
B(  1-C , 12-C ) :   1.0384 B(  1-C , 27-C ) :   1.0649 B(  2-N ,  4-C ) :   1.1661
B(  2-N ,  6-C ) :   1.3560 B(  3-N ,  5-C ) :   1.1661 B(  3-N ,  6-C ) :   1.3560
B(  4-C ,  5-C ) :   1.6206 B(  4-C ,  7-H ) :   0.9824 B(  5-C ,  8-H ) :   0.9824
B(  6-C ,  9-H ) :   0.9584 B( 10-C , 14-H ) :   0.9612 B( 10-C , 18-H ) :   0.9693
B( 10-C , 22-H ) :   0.9648 B( 11-C , 15-H ) :   0.9612 B( 11-C , 19-H ) :   0.9693
B( 11-C , 23-H ) :   0.9648 B( 12-C , 16-H ) :   0.9612 B( 12-C , 20-H ) :   0.9693
B( 12-C , 24-H ) :   0.9648 B( 13-C , 17-H ) :   0.9612 B( 13-C , 21-H ) :   0.9693
B( 13-C , 25-H ) :   0.9648 B( 26-C , 28-H ) :   0.9613 B( 26-C , 30-H ) :   0.9568
B( 26-C , 33-H ) :   0.9568 B( 27-C , 29-H ) :   0.9613 B( 27-C , 31-H ) :   0.9568
B( 27-C , 32-H ) :   0.9568

Dispersion correction           -0.005583063
FINAL SINGLE POINT ENERGY      -540.694323445359

DIPOLE MOMENT
-------------
                                X             Y             Z
Electronic contribution:      0.00002      -0.00000      -4.00635
Nuclear contribution   :     -0.00002       0.00000       4.05237
                        -----------------------------------------
Total Dipole Moment    :      0.00000       0.00000       0.04602
                        -----------------------------------------
Magnitude (a.u.)       :      0.04602
Magnitude (Debye)      :      0.11696

Dispersion correction in the Hessian             ... Starting D4

VIBRATIONAL FREQUENCIES
-----------------------

Scaling factor for frequencies =  1.000000000  (already applied!)

   0:         0.00 cm**-1
   1:         0.00 cm**-1
   2:         0.00 cm**-1
   3:         0.00 cm**-1
   4:         0.00 cm**-1
   5:         0.00 cm**-1
   6:        27.04 cm**-1
   7:        38.93 cm**-1
   8:       120.55 cm**-1
   9:       146.85 cm**-1
  10:       148.99 cm**-1
  11:       224.15 cm**-1
  12:       230.23 cm**-1
  13:       256.68 cm**-1
  14:       262.79 cm**-1
  15:       271.19 cm**-1
  16:       278.99 cm**-1
  17:       330.40 cm**-1
  18:       332.56 cm**-1
  19:       344.33 cm**-1
  20:       354.60 cm**-1
  21:       366.00 cm**-1
  22:       371.69 cm**-1
  23:       401.29 cm**-1
  24:       443.68 cm**-1
  25:       468.56 cm**-1
  26:       470.01 cm**-1
  27:       520.36 cm**-1
  28:       578.29 cm**-1
  29:       639.69 cm**-1
  30:       678.64 cm**-1
  31:       692.03 cm**-1
  32:       774.71 cm**-1
  33:       845.67 cm**-1
  34:       849.54 cm**-1
  35:       891.47 cm**-1
  36:       923.31 cm**-1
  37:       948.47 cm**-1
  38:       948.59 cm**-1
  39:       958.99 cm**-1
  40:       959.64 cm**-1
  41:       968.19 cm**-1
  42:       968.53 cm**-1
  43:      1023.20 cm**-1
  44:      1040.25 cm**-1
  45:      1049.84 cm**-1
  46:      1050.68 cm**-1
  47:      1054.12 cm**-1
  48:      1054.78 cm**-1
  49:      1126.26 cm**-1
  50:      1151.21 cm**-1
  51:      1222.73 cm**-1
  52:      1236.72 cm**-1
  53:      1266.02 cm**-1
  54:      1269.83 cm**-1
  55:      1277.51 cm**-1
  56:      1279.61 cm**-1
  57:      1304.22 cm**-1
  58:      1356.48 cm**-1
  59:      1396.21 cm**-1
  60:      1396.42 cm**-1
  61:      1401.38 cm**-1
  62:      1401.72 cm**-1
  63:      1413.62 cm**-1
  64:      1413.83 cm**-1
  65:      1441.79 cm**-1
  66:      1441.80 cm**-1
  67:      1442.49 cm**-1
  68:      1448.22 cm**-1
  69:      1448.30 cm**-1
  70:      1449.69 cm**-1
  71:      1453.97 cm**-1
  72:      1462.23 cm**-1
  73:      1472.09 cm**-1
  74:      1472.25 cm**-1
  75:      1476.43 cm**-1
  76:      1478.32 cm**-1
  77:      1478.67 cm**-1
  78:      1489.32 cm**-1
  79:      1636.67 cm**-1
  80:      1654.09 cm**-1
  81:      3071.22 cm**-1
  82:      3071.24 cm**-1
  83:      3072.74 cm**-1
  84:      3072.74 cm**-1
  85:      3076.37 cm**-1
  86:      3076.43 cm**-1
  87:      3174.72 cm**-1
  88:      3174.84 cm**-1
  89:      3178.98 cm**-1
  90:      3178.99 cm**-1
  91:      3179.97 cm**-1
  92:      3179.99 cm**-1
  93:      3184.62 cm**-1
  94:      3184.63 cm**-1
  95:      3185.18 cm**-1
  96:      3185.22 cm**-1
  97:      3189.87 cm**-1
  98:      3189.98 cm**-1
  99:      3306.74 cm**-1
 100:      3323.77 cm**-1
 101:      3336.17 cm**-1

IR SPECTRUM
-----------

 Mode   freq       eps      Int      T**2         TX        TY        TZ
       cm**-1   L/(mol*cm) km/mol    a.u.
----------------------------------------------------------------------------
  6:     27.04   0.000000    0.00  0.000000  (-0.000000  0.000000  0.000000)
  7:     38.93   0.000005    0.02  0.000037  ( 0.006087  0.000000 -0.000000)
  8:    120.55   0.000012    0.06  0.000032  ( 0.005628 -0.000000  0.000000)
  9:    146.85   0.000028    0.14  0.000059  (-0.000000 -0.000000 -0.007672)
 10:    148.99   0.000000    0.00  0.000000  ( 0.000000 -0.000000  0.000000)
 11:    224.15   0.000006    0.03  0.000008  ( 0.002781 -0.000000 -0.000000)
 12:    230.23   0.000000    0.00  0.000000  ( 0.000000  0.000000  0.000000)
 13:    256.68   0.000011    0.06  0.000014  ( 0.000000 -0.003680  0.000000)
 14:    262.79   0.000018    0.09  0.000021  (-0.000000  0.000000  0.004593)
 15:    271.19   0.000009    0.04  0.000010  ( 0.000000  0.000000 -0.003200)
 16:    278.99   0.000002    0.01  0.000002  ( 0.000000 -0.001391 -0.000000)
 17:    330.40   0.000000    0.00  0.000000  (-0.000000 -0.000000  0.000000)
 18:    332.56   0.000003    0.02  0.000003  (-0.001807  0.000000 -0.000000)
 19:    344.33   0.000115    0.58  0.000104  (-0.010218  0.000000 -0.000000)
 20:    354.60   0.000026    0.13  0.000023  (-0.000000 -0.000000  0.004767)
 21:    366.00   0.000000    0.00  0.000000  ( 0.000000  0.000000 -0.000000)
 22:    371.69   0.000003    0.01  0.000002  (-0.000000 -0.001520 -0.000000)
 23:    401.29   0.000002    0.01  0.000002  ( 0.000000  0.001275  0.000000)
 24:    443.68   0.000010    0.05  0.000007  (-0.002711  0.000000  0.000000)
 25:    468.56   0.000000    0.00  0.000000  ( 0.000000  0.000000  0.000000)
 26:    470.01   0.000025    0.13  0.000017  ( 0.000000 -0.000000  0.004069)
 27:    520.36   0.000092    0.47  0.000055  ( 0.000000 -0.007445  0.000000)
 28:    578.29   0.000157    0.79  0.000085  ( 0.000000  0.000000  0.009200)
 29:    639.69   0.001340    6.77  0.000654  (-0.000000 -0.025564  0.000000)
 30:    678.64   0.013818   69.83  0.006354  (-0.079711  0.000000 -0.000000)
 31:    692.03   0.000000    0.00  0.000000  (-0.000000 -0.000000  0.000000)
 32:    774.71   0.008571   43.32  0.003453  ( 0.058759  0.000000  0.000000)
 33:    845.67   0.000018    0.09  0.000007  ( 0.000000  0.000000 -0.002592)
 34:    849.54   0.000136    0.69  0.000050  ( 0.000000  0.007067 -0.000000)
 35:    891.47   0.006174   31.20  0.002161  (-0.046491 -0.000000 -0.000000)
 36:    923.31   0.000000    0.00  0.000000  ( 0.000000  0.000000  0.000000)
 37:    948.47   0.001061    5.36  0.000349  (-0.018679  0.000000 -0.000000)
 38:    948.59   0.000000    0.00  0.000000  ( 0.000007 -0.000000 -0.000000)
 39:    958.99   0.001447    7.31  0.000471  (-0.000000  0.000000 -0.021696)
 40:    959.64   0.000021    0.11  0.000007  (-0.000000  0.002636  0.000001)
 41:    968.19   0.000037    0.19  0.000012  ( 0.003471 -0.000000  0.000000)
 42:    968.53   0.000000    0.00  0.000000  (-0.000001  0.000000 -0.000000)
 43:   1023.20   0.001387    7.01  0.000423  ( 0.000000  0.020565 -0.000000)
 44:   1040.25   0.000126    0.64  0.000038  ( 0.000000 -0.000000 -0.006146)
 45:   1049.84   0.000031    0.16  0.000009  ( 0.000000  0.000000  0.003028)
 46:   1050.68   0.000120    0.60  0.000036  ( 0.000000  0.005963 -0.000000)
 47:   1054.12   0.000000    0.00  0.000000  ( 0.000001 -0.000000  0.000000)
 48:   1054.78   0.000204    1.03  0.000060  (-0.007763  0.000000 -0.000000)
 49:   1126.26   0.004496   22.72  0.001246  ( 0.000000 -0.000000 -0.035297)
 50:   1151.21   0.018307   92.51  0.004962  ( 0.000000 -0.070445  0.000000)
 51:   1222.73   0.001348    6.81  0.000344  ( 0.000000 -0.000000 -0.018550)
 52:   1236.72   0.080769  408.17  0.020381  ( 0.000000  0.142760 -0.000000)
 53:   1266.02   0.000024    0.12  0.000006  (-0.000000  0.002437  0.000000)
 54:   1269.83   0.000662    3.34  0.000163  (-0.000000  0.000000 -0.012751)
 55:   1277.51   0.000000    0.00  0.000000  (-0.000000  0.000000 -0.000000)
 56:   1279.61   0.006456   32.63  0.001575  ( 0.039680  0.000000 -0.000000)
 57:   1304.22   0.000028    0.14  0.000007  (-0.000000 -0.002597 -0.000000)
 58:   1356.48   0.004180   21.12  0.000962  ( 0.000000 -0.000000  0.031009)
 59:   1396.21   0.000000    0.00  0.000000  (-0.000004  0.000000 -0.000000)
 60:   1396.42   0.010676   53.95  0.002386  (-0.048844  0.000000  0.000001)
 61:   1401.38   0.000167    0.84  0.000037  ( 0.000000  0.006097 -0.000007)
 62:   1401.72   0.013547   68.46  0.003016  ( 0.000001  0.000001  0.054917)
 63:   1413.62   0.002351   11.88  0.000519  (-0.000000  0.022780 -0.000001)
 64:   1413.83   0.000229    1.16  0.000051  (-0.000000  0.000004  0.007114)
 65:   1441.79   0.000000    0.00  0.000000  ( 0.000046 -0.000000 -0.000000)
 66:   1441.80   0.000070    0.35  0.000015  (-0.003894 -0.000000  0.000000)
 67:   1442.49   0.000160    0.81  0.000035  (-0.000000  0.005891  0.000000)
 68:   1448.22   0.000000    0.00  0.000000  (-0.000001 -0.000000  0.000000)
 69:   1448.30   0.000072    0.36  0.000016  (-0.003943 -0.000000  0.000000)
 70:   1449.69   0.000301    1.52  0.000065  (-0.000000  0.000000 -0.008044)
 71:   1453.97   0.001182    5.97  0.000254  (-0.000000  0.015928  0.000000)
 72:   1462.23   0.004198   21.21  0.000896  ( 0.000000  0.000000  0.029931)
 73:   1472.09   0.000000    0.00  0.000000  (-0.000004 -0.000000  0.000000)
 74:   1472.25   0.003551   17.94  0.000753  (-0.027434  0.000000 -0.000000)
 75:   1476.43   0.000055    0.28  0.000012  (-0.000000 -0.003402 -0.000001)
 76:   1478.32   0.001023    5.17  0.000216  ( 0.000000  0.000005 -0.014697)
 77:   1478.67   0.001933    9.77  0.000408  (-0.000000 -0.020197 -0.000003)
 78:   1489.32   0.000039    0.19  0.000008  ( 0.000000  0.000000  0.002842)
 79:   1636.67   0.037472  189.37  0.007145  (-0.000000  0.084527 -0.000000)
 80:   1654.09   0.002876   14.53  0.000543  ( 0.000000  0.000000  0.023292)
 81:   3071.22   0.001083    5.47  0.000110  (-0.000001  0.010491  0.000023)
 82:   3071.24   0.004644   23.47  0.000472  (-0.000000 -0.000011  0.021724)
 83:   3072.74   0.000000    0.00  0.000000  (-0.000159  0.000000 -0.000000)
 84:   3072.74   0.006631   33.51  0.000673  ( 0.025951  0.000000  0.000000)
 85:   3076.37   0.000510    2.58  0.000052  (-0.000000 -0.007192 -0.000000)
 86:   3076.43   0.000228    1.15  0.000023  (-0.000000  0.000001 -0.004808)
 87:   3174.72   0.003819   19.30  0.000375  ( 0.019376 -0.000000  0.000000)
 88:   3174.84   0.000000    0.00  0.000000  (-0.000004  0.000000 -0.000000)
 89:   3178.98   0.003350   16.93  0.000329  ( 0.018134  0.000001  0.000001)
 90:   3178.99   0.000000    0.00  0.000000  (-0.000194  0.000000  0.000003)
 91:   3179.97   0.000557    2.82  0.000055  ( 0.000002 -0.007394 -0.000130)
 92:   3179.99   0.007951   40.18  0.000780  ( 0.000001  0.000034 -0.027933)
 93:   3184.62   0.001795    9.07  0.000176  ( 0.013261 -0.000000  0.000001)
 94:   3184.63   0.000000    0.00  0.000000  ( 0.000076 -0.000000 -0.000000)
 95:   3185.18   0.000035    0.18  0.000003  ( 0.000000  0.001848  0.000015)
 96:   3185.22   0.002064   10.43  0.000202  ( 0.000001  0.000002 -0.014221)
 97:   3189.87   0.009650   48.77  0.000944  (-0.000000 -0.030725 -0.000005)
 98:   3189.98   0.000778    3.93  0.000076  (-0.000000 -0.000017  0.008726)
 99:   3306.74   0.004755   24.03  0.000449  (-0.000000 -0.021184 -0.000000)
100:   3323.77   0.007101   35.89  0.000667  ( 0.000000  0.000000 -0.025821)
101:   3336.17   0.007829   39.56  0.000732  (-0.000000  0.000000  0.027061)

--------------------------
THERMOCHEMISTRY AT 298.15K
--------------------------

Temperature         ... 298.15 K
Pressure            ... 1.00 atm
Total Mass          ... 181.30 AMU

Throughout the following assumptions are being made:
  (1) The electronic state is orbitally nondegenerate
  (2) There are no thermally accessible electronically excited states
  (3) Hindered rotations indicated by low frequency modes are not
      treated as such but are treated as vibrations and this may
      cause some error
  (4) All equations used are the standard statistical mechanics
      equations for an ideal gas
  (5) All vibrations are strictly harmonic

freq.      27.04  E(vib)   ...       0.55
freq.      38.93  E(vib)   ...       0.54
freq.     120.55  E(vib)   ...       0.44
freq.     146.85  E(vib)   ...       0.41
freq.     148.99  E(vib)   ...       0.40
freq.     224.15  E(vib)   ...       0.33
freq.     230.23  E(vib)   ...       0.32
freq.     256.68  E(vib)   ...       0.30
freq.     262.79  E(vib)   ...       0.29
freq.     271.19  E(vib)   ...       0.29
freq.     278.99  E(vib)   ...       0.28
freq.     330.40  E(vib)   ...       0.24
freq.     332.56  E(vib)   ...       0.24
freq.     344.33  E(vib)   ...       0.23
freq.     354.60  E(vib)   ...       0.22
freq.     366.00  E(vib)   ...       0.22
freq.     371.69  E(vib)   ...       0.21
freq.     401.29  E(vib)   ...       0.19
freq.     443.68  E(vib)   ...       0.17
freq.     468.56  E(vib)   ...       0.16
freq.     470.01  E(vib)   ...       0.16
freq.     520.36  E(vib)   ...       0.13
freq.     578.29  E(vib)   ...       0.11
freq.     639.69  E(vib)   ...       0.09
freq.     678.64  E(vib)   ...       0.08
freq.     692.03  E(vib)   ...       0.07
freq.     774.71  E(vib)   ...       0.05
freq.     845.67  E(vib)   ...       0.04
freq.     849.54  E(vib)   ...       0.04
freq.     891.47  E(vib)   ...       0.03
freq.     923.31  E(vib)   ...       0.03
freq.     948.47  E(vib)   ...       0.03
freq.     948.59  E(vib)   ...       0.03
freq.     958.99  E(vib)   ...       0.03
freq.     959.64  E(vib)   ...       0.03
freq.     968.19  E(vib)   ...       0.03
freq.     968.53  E(vib)   ...       0.03
freq.    1023.20  E(vib)   ...       0.02
freq.    1040.25  E(vib)   ...       0.02
freq.    1049.84  E(vib)   ...       0.02
freq.    1050.68  E(vib)   ...       0.02
freq.    1054.12  E(vib)   ...       0.02
freq.    1054.78  E(vib)   ...       0.02
freq.    1126.26  E(vib)   ...       0.01
freq.    1151.21  E(vib)   ...       0.01
freq.    1222.73  E(vib)   ...       0.01
freq.    1236.72  E(vib)   ...       0.01
freq.    1266.02  E(vib)   ...       0.01
freq.    1269.83  E(vib)   ...       0.01
freq.    1277.51  E(vib)   ...       0.01
freq.    1279.61  E(vib)   ...       0.01
freq.    1304.22  E(vib)   ...       0.01
freq.    1356.48  E(vib)   ...       0.01
freq.    1396.21  E(vib)   ...       0.00
freq.    1396.42  E(vib)   ...       0.00
freq.    1401.38  E(vib)   ...       0.00
freq.    1401.72  E(vib)   ...       0.00
freq.    1413.62  E(vib)   ...       0.00
freq.    1413.83  E(vib)   ...       0.00
freq.    1441.79  E(vib)   ...       0.00
freq.    1441.80  E(vib)   ...       0.00
freq.    1442.49  E(vib)   ...       0.00
freq.    1448.22  E(vib)   ...       0.00
freq.    1448.30  E(vib)   ...       0.00
freq.    1449.69  E(vib)   ...       0.00
freq.    1453.97  E(vib)   ...       0.00
freq.    1462.23  E(vib)   ...       0.00
freq.    1472.09  E(vib)   ...       0.00
freq.    1472.25  E(vib)   ...       0.00
freq.    1476.43  E(vib)   ...       0.00
freq.    1478.32  E(vib)   ...       0.00
freq.    1478.67  E(vib)   ...       0.00
freq.    1489.32  E(vib)   ...       0.00
freq.    1636.67  E(vib)   ...       0.00
freq.    1654.09  E(vib)   ...       0.00
freq.    3071.22  E(vib)   ...       0.00
freq.    3071.24  E(vib)   ...       0.00
freq.    3072.74  E(vib)   ...       0.00
freq.    3072.74  E(vib)   ...       0.00
freq.    3076.37  E(vib)   ...       0.00
freq.    3076.43  E(vib)   ...       0.00
freq.    3174.72  E(vib)   ...       0.00
freq.    3174.84  E(vib)   ...       0.00
freq.    3178.98  E(vib)   ...       0.00
freq.    3178.99  E(vib)   ...       0.00
freq.    3179.97  E(vib)   ...       0.00
freq.    3179.99  E(vib)   ...       0.00
freq.    3184.62  E(vib)   ...       0.00
freq.    3184.63  E(vib)   ...       0.00
freq.    3185.18  E(vib)   ...       0.00
freq.    3185.22  E(vib)   ...       0.00
freq.    3189.87  E(vib)   ...       0.00
freq.    3189.98  E(vib)   ...       0.00
freq.    3306.74  E(vib)   ...       0.00
freq.    3323.77  E(vib)   ...       0.00
freq.    3336.17  E(vib)   ...       0.00

------------
INNER ENERGY
------------

The inner energy is: U= E(el) + E(ZPE) + E(vib) + E(rot) + E(trans)
    E(el)   - is the total energy from the electronic structure calculation
              = E(kin-el) + E(nuc-el) + E(el-el) + E(nuc-nuc)
    E(ZPE)  - the the zero temperature vibrational energy from the frequency calculation
    E(vib)  - the the finite temperature correction to E(ZPE) due to population
              of excited vibrational states
    E(rot)  - is the rotational thermal energy
    E(trans)- is the translational thermal energy

Summary of contributions to the inner energy U:
Electronic energy                ...   -540.69432345 Eh
Zero point energy                ...      0.31111347 Eh     195.23 kcal/mol
Thermal vibrational correction   ...      0.01166384 Eh       7.32 kcal/mol
Thermal rotational correction    ...      0.00141627 Eh       0.89 kcal/mol
Thermal translational correction ...      0.00141627 Eh       0.89 kcal/mol
-----------------------------------------------------------------------
Total thermal energy                   -540.36871360 Eh

Summary of corrections to the electronic energy:
(perhaps to be used in another calculation)
Total thermal correction                  0.01449638 Eh       9.10 kcal/mol
Non-thermal (ZPE) correction              0.31111347 Eh     195.23 kcal/mol
-----------------------------------------------------------------------
Total correction                          0.32560985 Eh     204.32 kcal/mol

--------
ENTHALPY
--------

The enthalpy is H = U + kB*T
                kB is Boltzmann's constant
Total free energy                 ...   -540.36871360 Eh
Thermal Enthalpy correction       ...      0.00094421 Eh       0.59 kcal/mol
-----------------------------------------------------------------------
Total Enthalpy                    ...   -540.36776939 Eh

Note: Rotational entropy computed according to Herzberg
Infrared and Raman Spectra, Chapter V,1, Van Nostrand Reinhold, 1945
Point Group:  C2v, Symmetry Number:   2
Rotational constants in cm-1:     0.055426     0.014781     0.013815

                             ****ORCA TERMINATED NORMALLY****
TOTAL RUN TIME: 0 days 0 hours 22 minutes 47 seconds 432 msec
