                         Program Version 5.0.4 -  RELEASE  -
|  1> # ORCA 5.0.4 - 5+.inp # write input file
|  2> # Basic Mode
|  3> #
|  4> ! Freq wB97X Def2-SVP D4 SlowConv TightSCF DEFGRID2 Def2/J RIJCOSX
|  5>
|  6>
|  7>
|  8> %maxcore 4500
|  9>
| 10> %geom
| 11> Maxiter 150
| 12> END
| 13>
| 14> * xyzfile 1 1 5+.xyz
| 15>
| 16>                          ****END OF INPUT****

CARTESIAN COORDINATES (ANGSTROEM)
---------------------------------
  C     -0.000000    2.514526    0.209467
  C      0.000000   -2.514526    0.209467
  N      0.000001    1.087594   -0.242693
  N      0.000002   -1.087595   -0.242694
  C      0.000003    0.679517   -1.560063
  C      0.000004   -0.679517   -1.560064
  C      0.000001   -0.000000    0.526977
  H      0.000003    1.379780   -2.392700
  H      0.000005   -1.379780   -2.392701
  H     -0.000000   -0.000000    1.613685
  C      1.263439    3.178849   -0.339501
  C      1.263437   -3.178850   -0.339505
  C     -1.263441   -3.178846   -0.339500
  C     -1.263439    3.178847   -0.339504
  H      1.283147    3.169933   -1.439640
  H      1.283142   -3.169936   -1.439644
  H     -1.283149   -3.169933   -1.439639
  H     -1.283145    3.169933   -1.439643
  H      1.290552    4.227511   -0.009167
  H      1.290551   -4.227511   -0.009170
  H     -1.290559   -4.227507   -0.009163
  H     -1.290555    4.227508   -0.009168
  H      2.164862    2.671555    0.036530
  H      2.164862   -2.671556    0.036522
  H     -2.164862   -2.671547    0.036529
  H     -2.164862    2.671551    0.036525
  C     -0.000003    2.561086    1.734190
  C      0.000003   -2.561086    1.734189
  H     -0.000004    3.615426    2.044234
  H      0.000003   -3.615426    2.044234
  H     -0.898324    2.086795    2.158388
  H     -0.898318   -2.086796    2.158390
  H      0.898325   -2.086797    2.158388
  H      0.898319    2.086797    2.158391

 Total Charge           Charge          ....    1
 Multiplicity           Mult            ....    1
 Number of Electrons    NEL             ....  100
 Basis Dimension        Dim             ....  287

ORBITAL ENERGIES
----------------

  NO   OCC          E(Eh)            E(eV)
   0   2.0000     -14.646730      -398.5578
   1   2.0000     -14.646680      -398.5564
   2   2.0000     -10.524102      -286.3754
   3   2.0000     -10.477080      -285.0958
   4   2.0000     -10.477054      -285.0951
   5   2.0000     -10.473478      -284.9978
   6   2.0000     -10.472892      -284.9819
   7   2.0000     -10.409437      -283.2552
   8   2.0000     -10.409425      -283.2549
   9   2.0000     -10.402433      -283.0646
  10   2.0000     -10.402428      -283.0645
  11   2.0000     -10.402418      -283.0642
  12   2.0000     -10.402415      -283.0641
  13   2.0000      -1.352461       -36.8023
  14   2.0000      -1.232715       -33.5439
  15   2.0000      -1.113619       -30.3031
  16   2.0000      -1.065500       -28.9937
  17   2.0000      -1.060945       -28.8698
  18   2.0000      -0.965656       -26.2768
  19   2.0000      -0.959110       -26.0987
  20   2.0000      -0.952336       -25.9144
  21   2.0000      -0.951564       -25.8934
  22   2.0000      -0.924904       -25.1679
  23   2.0000      -0.902665       -24.5628
  24   2.0000      -0.866086       -23.5674
  25   2.0000      -0.835462       -22.7341
  26   2.0000      -0.778515       -21.1845
  27   2.0000      -0.765342       -20.8260
  28   2.0000      -0.737952       -20.0807
  29   2.0000      -0.726685       -19.7741
  30   2.0000      -0.722942       -19.6723
  31   2.0000      -0.713669       -19.4199
  32   2.0000      -0.708273       -19.2731
  33   2.0000      -0.686913       -18.6919
  34   2.0000      -0.685640       -18.6572
  35   2.0000      -0.677797       -18.4438
  36   2.0000      -0.650194       -17.6927
  37   2.0000      -0.631344       -17.1797
  38   2.0000      -0.631311       -17.1788
  39   2.0000      -0.628491       -17.1021
  40   2.0000      -0.625662       -17.0251
  41   2.0000      -0.617065       -16.7912
  42   2.0000      -0.610968       -16.6253
  43   2.0000      -0.610669       -16.6172
  44   2.0000      -0.597638       -16.2626
  45   2.0000      -0.584456       -15.9038
  46   2.0000      -0.584014       -15.8918
  47   2.0000      -0.582180       -15.8419
  48   2.0000      -0.544115       -14.8061
  49   2.0000      -0.514716       -14.0061
  50   0.0000      -0.077688        -2.1140
  51   0.0000      -0.044617        -1.2141
  52   0.0000      -0.002494        -0.0679
  53   0.0000       0.014254         0.3879
  54   0.0000       0.026919         0.7325

MULLIKEN ATOMIC CHARGES
-----------------------
   0 C :   -0.270863
   1 C :   -0.270863
   2 N :   -0.173271
   3 N :   -0.173273
   4 C :    0.070047
   5 C :    0.070048
   6 C :    0.201543
   7 H :    0.092914
   8 H :    0.092914
   9 H :    0.099818
  10 C :    0.045106
  11 C :    0.045105
  12 C :    0.045106
  13 C :    0.045105
  14 H :    0.047103
  15 H :    0.047103
  16 H :    0.047103
  17 H :    0.047103
  18 H :    0.071109
  19 H :    0.071109
  20 H :    0.071110
  21 H :    0.071109
  22 H :    0.054803
  23 H :    0.054803
  24 H :    0.054802
  25 H :    0.054803
  26 C :    0.008101
  27 C :    0.008102
  28 H :    0.078579
  29 H :    0.078579
  30 H :    0.053786
  31 H :    0.053785
  32 H :    0.053786
  33 H :    0.053786
Sum of atomic charges:    1.0000000

LOEWDIN ATOMIC CHARGES
----------------------
   0 C :    0.009581
   1 C :    0.009580
   2 N :    0.098456
   3 N :    0.098456
   4 C :    0.022209
   5 C :    0.022210
   6 C :    0.102977
   7 H :    0.054473
   8 H :    0.054473
   9 H :    0.052440
  10 C :   -0.040370
  11 C :   -0.040370
  12 C :   -0.040370
  13 C :   -0.040370
  14 H :    0.033324
  15 H :    0.033324
  16 H :    0.033324
  17 H :    0.033324
  18 H :    0.049525
  19 H :    0.049525
  20 H :    0.049525
  21 H :    0.049525
  22 H :    0.037693
  23 H :    0.037693
  24 H :    0.037693
  25 H :    0.037693
  26 C :   -0.046967
  27 C :   -0.046967
  28 H :    0.055359
  29 H :    0.055360
  30 H :    0.034417
  31 H :    0.034418
  32 H :    0.034418
  33 H :    0.034418

  Mayer bond orders larger than 0.100000
B(  0-C ,  2-N ) :   0.7953 B(  0-C , 10-C ) :   1.0323 B(  0-C , 13-C ) :   1.0323
B(  0-C , 26-C ) :   1.0581 B(  1-C ,  3-N ) :   0.7953 B(  1-C , 11-C ) :   1.0323
B(  1-C , 12-C ) :   1.0323 B(  1-C , 27-C ) :   1.0581 B(  2-N ,  4-C ) :   1.1744
B(  2-N ,  6-C ) :   1.3560 B(  3-N ,  5-C ) :   1.1744 B(  3-N ,  6-C ) :   1.3560
B(  4-C ,  5-C ) :   1.6208 B(  4-C ,  7-H ) :   0.9820 B(  5-C ,  8-H ) :   0.9820
B(  6-C ,  9-H ) :   0.9640 B( 10-C , 14-H ) :   0.9613 B( 10-C , 18-H ) :   0.9686
B( 10-C , 22-H ) :   0.9646 B( 11-C , 15-H ) :   0.9613 B( 11-C , 19-H ) :   0.9686
B( 11-C , 23-H ) :   0.9646 B( 12-C , 16-H ) :   0.9613 B( 12-C , 20-H ) :   0.9686
B( 12-C , 24-H ) :   0.9646 B( 13-C , 17-H ) :   0.9613 B( 13-C , 21-H ) :   0.9686
B( 13-C , 25-H ) :   0.9646 B( 26-C , 28-H ) :   0.9605 B( 26-C , 30-H ) :   0.9567
B( 26-C , 33-H ) :   0.9567 B( 27-C , 29-H ) :   0.9605 B( 27-C , 31-H ) :   0.9567
B( 27-C , 32-H ) :   0.9567

Dispersion correction           -0.005587229
FINAL SINGLE POINT ENERGY      -540.620706119348

DIPOLE MOMENT
-------------
                                X             Y             Z
Electronic contribution:      0.00002       0.00000      -4.02645
Nuclear contribution   :     -0.00002       0.00000       4.05236
                        -----------------------------------------
Total Dipole Moment    :      0.00000       0.00000       0.02592
                        -----------------------------------------
Magnitude (a.u.)       :      0.02592
Magnitude (Debye)      :      0.06588

Dispersion correction in the Hessian             ... Starting D4

VIBRATIONAL FREQUENCIES
-----------------------

Scaling factor for frequencies =  1.000000000  (already applied!)

   0:         0.00 cm**-1
   1:         0.00 cm**-1
   2:         0.00 cm**-1
   3:         0.00 cm**-1
   4:         0.00 cm**-1
   5:         0.00 cm**-1
   6:       -27.79 cm**-1 ***imaginary mode***
   7:        28.31 cm**-1
   8:       123.86 cm**-1
   9:       145.63 cm**-1
  10:       151.09 cm**-1
  11:       239.24 cm**-1
  12:       243.88 cm**-1
  13:       267.48 cm**-1
  14:       271.70 cm**-1
  15:       286.10 cm**-1
  16:       286.54 cm**-1
  17:       333.97 cm**-1
  18:       336.12 cm**-1
  19:       345.74 cm**-1
  20:       354.69 cm**-1
  21:       363.64 cm**-1
  22:       367.87 cm**-1
  23:       406.47 cm**-1
  24:       444.54 cm**-1
  25:       466.28 cm**-1
  26:       471.51 cm**-1
  27:       520.97 cm**-1
  28:       580.14 cm**-1
  29:       639.95 cm**-1
  30:       686.74 cm**-1
  31:       692.25 cm**-1
  32:       775.87 cm**-1
  33:       845.56 cm**-1
  34:       849.35 cm**-1
  35:       887.89 cm**-1
  36:       919.69 cm**-1
  37:       950.01 cm**-1
  38:       950.17 cm**-1
  39:       958.41 cm**-1
  40:       958.90 cm**-1
  41:       968.71 cm**-1
  42:       968.82 cm**-1
  43:      1023.64 cm**-1
  44:      1039.30 cm**-1
  45:      1051.17 cm**-1
  46:      1052.59 cm**-1
  47:      1055.60 cm**-1
  48:      1056.43 cm**-1
  49:      1117.31 cm**-1
  50:      1143.90 cm**-1
  51:      1228.37 cm**-1
  52:      1243.87 cm**-1
  53:      1263.81 cm**-1
  54:      1273.62 cm**-1
  55:      1285.43 cm**-1
  56:      1287.91 cm**-1
  57:      1303.13 cm**-1
  58:      1357.75 cm**-1
  59:      1405.26 cm**-1
  60:      1405.68 cm**-1
  61:      1405.79 cm**-1
  62:      1407.10 cm**-1
  63:      1429.01 cm**-1
  64:      1429.68 cm**-1
  65:      1448.28 cm**-1
  66:      1454.07 cm**-1
  67:      1454.55 cm**-1
  68:      1457.32 cm**-1
  69:      1457.69 cm**-1
  70:      1461.12 cm**-1
  71:      1464.87 cm**-1
  72:      1471.10 cm**-1
  73:      1486.99 cm**-1
  74:      1487.29 cm**-1
  75:      1487.66 cm**-1
  76:      1489.97 cm**-1
  77:      1496.54 cm**-1
  78:      1499.13 cm**-1
  79:      1639.55 cm**-1
  80:      1653.67 cm**-1
  81:      3071.74 cm**-1
  82:      3071.93 cm**-1
  83:      3073.64 cm**-1
  84:      3073.67 cm**-1
  85:      3077.02 cm**-1
  86:      3077.05 cm**-1
  87:      3173.93 cm**-1
  88:      3174.05 cm**-1
  89:      3179.82 cm**-1
  90:      3179.83 cm**-1
  91:      3181.42 cm**-1
  92:      3181.51 cm**-1
  93:      3187.51 cm**-1
  94:      3187.54 cm**-1
  95:      3188.15 cm**-1
  96:      3188.27 cm**-1
  97:      3193.32 cm**-1
  98:      3193.46 cm**-1
  99:      3302.99 cm**-1
 100:      3320.59 cm**-1
 101:      3334.36 cm**-1

IR SPECTRUM
-----------

 Mode   freq       eps      Int      T**2         TX        TY        TZ
       cm**-1   L/(mol*cm) km/mol    a.u.
----------------------------------------------------------------------------
  7:     28.31   0.000000    0.00  0.000004  (-0.001907  0.000000 -0.000000)
  8:    123.86   0.000044    0.22  0.000110  (-0.010475  0.000000  0.000000)
  9:    145.63   0.000015    0.08  0.000033  (-0.000000 -0.000000 -0.005741)
 10:    151.09   0.000000    0.00  0.000000  ( 0.000000 -0.000000 -0.000000)
 11:    239.24   0.000000    0.00  0.000000  (-0.000352  0.000000 -0.000000)
 12:    243.88   0.000000    0.00  0.000000  (-0.000000 -0.000000  0.000000)
 13:    267.48   0.000003    0.02  0.000004  (-0.000000 -0.000000  0.001985)
 14:    271.70   0.000001    0.00  0.000001  ( 0.000000 -0.000942  0.000000)
 15:    286.10   0.000021    0.10  0.000023  (-0.000000 -0.000002  0.004759)
 16:    286.54   0.000005    0.03  0.000005  (-0.000000  0.002340  0.000005)
 17:    333.97   0.000000    0.00  0.000000  ( 0.000000 -0.000000 -0.000000)
 18:    336.12   0.000005    0.02  0.000004  ( 0.002120 -0.000000 -0.000000)
 19:    345.74   0.000060    0.30  0.000054  ( 0.007369 -0.000000  0.000000)
 20:    354.69   0.000002    0.01  0.000002  ( 0.000000  0.000000 -0.001397)
 21:    363.64   0.000000    0.00  0.000000  ( 0.000000  0.000000  0.000000)
 22:    367.87   0.000000    0.00  0.000000  ( 0.000000 -0.000260 -0.000000)
 23:    406.47   0.000059    0.30  0.000045  (-0.000000 -0.006744  0.000000)
 24:    444.54   0.000210    1.06  0.000147  (-0.012137 -0.000000  0.000000)
 25:    466.28   0.000000    0.00  0.000000  (-0.000000  0.000000  0.000000)
 26:    471.51   0.000100    0.50  0.000066  ( 0.000000  0.000000 -0.008117)
 27:    520.97   0.000117    0.59  0.000070  (-0.000000  0.008385  0.000000)
 28:    580.14   0.000169    0.85  0.000091  ( 0.000000 -0.000000 -0.009534)
 29:    639.95   0.001833    9.26  0.000894  ( 0.000000  0.029896 -0.000000)
 30:    686.74   0.006971   35.23  0.003168  ( 0.056284 -0.000000  0.000000)
 31:    692.25   0.000000    0.00  0.000000  ( 0.000001 -0.000000  0.000000)
 32:    775.87   0.004722   23.86  0.001899  (-0.043579 -0.000000 -0.000000)
 33:    845.56   0.000009    0.04  0.000003  ( 0.000000  0.000000  0.001772)
 34:    849.35   0.000042    0.21  0.000015  ( 0.000000 -0.003930  0.000000)
 35:    887.89   0.002621   13.24  0.000921  ( 0.030349  0.000000  0.000000)
 36:    919.69   0.000000    0.00  0.000000  (-0.000000  0.000000 -0.000000)
 37:    950.01   0.000647    3.27  0.000213  ( 0.014580  0.000000 -0.000000)
 38:    950.17   0.000000    0.00  0.000000  (-0.000010 -0.000000  0.000000)
 39:    958.41   0.000659    3.33  0.000215  ( 0.000000  0.000001  0.014653)
 40:    958.90   0.000004    0.02  0.000001  (-0.000000  0.001173 -0.000008)
 41:    968.71   0.000000    0.00  0.000000  (-0.000002  0.000000 -0.000000)
 42:    968.82   0.000019    0.10  0.000006  (-0.002494 -0.000000 -0.000000)
 43:   1023.64   0.000629    3.18  0.000192  ( 0.000000 -0.013844  0.000000)
 44:   1039.30   0.000171    0.87  0.000051  (-0.000000  0.000000  0.007174)
 45:   1051.17   0.000033    0.17  0.000010  (-0.000000  0.000000 -0.003129)
 46:   1052.59   0.000058    0.30  0.000017  ( 0.000001  0.004161  0.000000)
 47:   1055.60   0.000000    0.00  0.000000  (-0.000001  0.000000  0.000000)
 48:   1056.43   0.000121    0.61  0.000036  ( 0.005989 -0.000000 -0.000000)
 49:   1117.31   0.003220   16.27  0.000899  (-0.000000 -0.000001  0.029991)
 50:   1143.90   0.012347   62.40  0.003368  (-0.000000  0.058039  0.000000)
 51:   1228.37   0.000590    2.98  0.000150  (-0.000000  0.000001  0.012239)
 52:   1243.87   0.051735  261.45  0.012979  ( 0.000000 -0.113927  0.000000)
 53:   1263.81   0.000404    2.04  0.000100  ( 0.000000  0.009993  0.000000)
 54:   1273.62   0.000006    0.03  0.000002  ( 0.000000  0.000000  0.001229)
 55:   1285.43   0.000000    0.00  0.000000  ( 0.000000 -0.000000 -0.000000)
 56:   1287.91   0.002045   10.33  0.000495  (-0.022258 -0.000000  0.000000)
 57:   1303.13   0.000062    0.31  0.000015  (-0.000000  0.003848  0.000000)
 58:   1357.75   0.001927    9.74  0.000443  (-0.000000 -0.000000  0.021046)
 59:   1405.26   0.000000    0.00  0.000000  (-0.000002 -0.000001 -0.000001)
 60:   1405.68   0.000141    0.71  0.000031  ( 0.000019 -0.005600  0.000016)
 61:   1405.79   0.009479   47.90  0.002104  (-0.045872 -0.000002  0.000002)
 62:   1407.10   0.010658   53.86  0.002364  (-0.000002 -0.000002 -0.048618)
 63:   1429.01   0.003315   16.75  0.000724  (-0.000000 -0.026905 -0.000001)
 64:   1429.68   0.000150    0.76  0.000033  ( 0.000000  0.000005 -0.005717)
 65:   1448.28   0.000181    0.92  0.000039  ( 0.000000 -0.006246 -0.000001)
 66:   1454.07   0.000000    0.00  0.000000  (-0.000000  0.000000  0.000000)
 67:   1454.55   0.000049    0.25  0.000011  ( 0.003245 -0.000000  0.000000)
 68:   1457.32   0.000000    0.00  0.000000  ( 0.000000  0.000000 -0.000000)
 69:   1457.69   0.000016    0.08  0.000003  ( 0.001850  0.000000  0.000000)
 70:   1461.12   0.000119    0.60  0.000025  ( 0.000000 -0.000000  0.005049)
 71:   1464.87   0.000555    2.81  0.000118  (-0.000000 -0.010876 -0.000002)
 72:   1471.10   0.002890   14.61  0.000613  ( 0.000000  0.000001 -0.024761)
 73:   1486.99   0.000000    0.00  0.000000  ( 0.000006 -0.000001  0.000000)
 74:   1487.29   0.000448    2.27  0.000094  ( 0.000004 -0.009700 -0.000002)
 75:   1487.66   0.004277   21.62  0.000897  ( 0.029954  0.000001  0.000000)
 76:   1489.97   0.002110   10.67  0.000442  (-0.000001 -0.000001  0.021024)
 77:   1496.54   0.002743   13.86  0.000572  ( 0.000000  0.023917  0.000000)
 78:   1499.13   0.000489    2.47  0.000102  (-0.000000  0.000000 -0.010087)
 79:   1639.55   0.025054  126.61  0.004769  ( 0.000000  0.069055  0.000001)
 80:   1653.67   0.002356   11.91  0.000445  (-0.000000  0.000004 -0.021085)
 81:   3071.74   0.001034    5.23  0.000105  ( 0.000000  0.010251  0.000007)
 82:   3071.93   0.001849    9.34  0.000188  ( 0.000001 -0.000006  0.013705)
 83:   3073.64   0.000000    0.00  0.000000  ( 0.000118  0.000001  0.000001)
 84:   3073.67   0.002169   10.96  0.000220  (-0.014840  0.000001  0.000000)
 85:   3077.02   0.000047    0.24  0.000005  ( 0.000001  0.002191  0.000029)
 86:   3077.05   0.000226    1.14  0.000023  ( 0.000001  0.000013 -0.004790)
 87:   3173.93   0.002087   10.55  0.000205  (-0.014326  0.000001 -0.000000)
 88:   3174.05   0.000000    0.00  0.000000  ( 0.000000 -0.000000  0.000000)
 89:   3179.82   0.000000    0.00  0.000000  ( 0.000164  0.000000  0.000004)
 90:   3179.83   0.001582    7.99  0.000155  ( 0.012460  0.000001  0.000001)
 91:   3181.42   0.000107    0.54  0.000011  (-0.000003  0.003240  0.000018)
 92:   3181.51   0.003779   19.10  0.000371  (-0.000000 -0.000003  0.019253)
 93:   3187.51   0.000000    0.00  0.000000  ( 0.000154  0.000002 -0.000010)
 94:   3187.54   0.000824    4.16  0.000081  ( 0.008980 -0.000005  0.000007)
 95:   3188.15   0.000012    0.06  0.000001  (-0.000011 -0.001090  0.000028)
 96:   3188.27   0.000858    4.34  0.000084  (-0.000007  0.000006  0.009164)
 97:   3193.32   0.002483   12.55  0.000243  ( 0.000002  0.015576 -0.000008)
 98:   3193.46   0.000108    0.54  0.000011  ( 0.000000 -0.000031 -0.003245)
 99:   3302.99   0.002467   12.47  0.000233  ( 0.000000 -0.015266  0.000000)
100:   3320.59   0.003665   18.52  0.000344  ( 0.000000 -0.000000 -0.018558)
101:   3334.36   0.003232   16.33  0.000302  (-0.000000  0.000000  0.017392)

--------------------------
THERMOCHEMISTRY AT 298.15K
--------------------------

Temperature         ... 298.15 K
Pressure            ... 1.00 atm
Total Mass          ... 181.30 AMU

Throughout the following assumptions are being made:
  (1) The electronic state is orbitally nondegenerate
  (2) There are no thermally accessible electronically excited states
  (3) Hindered rotations indicated by low frequency modes are not
      treated as such but are treated as vibrations and this may
      cause some error
  (4) All equations used are the standard statistical mechanics
      equations for an ideal gas
  (5) All vibrations are strictly harmonic

freq.      28.31  E(vib)   ...       0.55
freq.     123.86  E(vib)   ...       0.43
freq.     145.63  E(vib)   ...       0.41
freq.     151.09  E(vib)   ...       0.40
freq.     239.24  E(vib)   ...       0.31
freq.     243.88  E(vib)   ...       0.31
freq.     267.48  E(vib)   ...       0.29
freq.     271.70  E(vib)   ...       0.29
freq.     286.10  E(vib)   ...       0.27
freq.     286.54  E(vib)   ...       0.27
freq.     333.97  E(vib)   ...       0.24
freq.     336.12  E(vib)   ...       0.24
freq.     345.74  E(vib)   ...       0.23
freq.     354.69  E(vib)   ...       0.22
freq.     363.64  E(vib)   ...       0.22
freq.     367.87  E(vib)   ...       0.21
freq.     406.47  E(vib)   ...       0.19
freq.     444.54  E(vib)   ...       0.17
freq.     466.28  E(vib)   ...       0.16
freq.     471.51  E(vib)   ...       0.15
freq.     520.97  E(vib)   ...       0.13
freq.     580.14  E(vib)   ...       0.11
freq.     639.95  E(vib)   ...       0.09
freq.     686.74  E(vib)   ...       0.07
freq.     692.25  E(vib)   ...       0.07
freq.     775.87  E(vib)   ...       0.05
freq.     845.56  E(vib)   ...       0.04
freq.     849.35  E(vib)   ...       0.04
freq.     887.89  E(vib)   ...       0.04
freq.     919.69  E(vib)   ...       0.03
freq.     950.01  E(vib)   ...       0.03
freq.     950.17  E(vib)   ...       0.03
freq.     958.41  E(vib)   ...       0.03
freq.     958.90  E(vib)   ...       0.03
freq.     968.71  E(vib)   ...       0.03
freq.     968.82  E(vib)   ...       0.03
freq.    1023.64  E(vib)   ...       0.02
freq.    1039.30  E(vib)   ...       0.02
freq.    1051.17  E(vib)   ...       0.02
freq.    1052.59  E(vib)   ...       0.02
freq.    1055.60  E(vib)   ...       0.02
freq.    1056.43  E(vib)   ...       0.02
freq.    1117.31  E(vib)   ...       0.01
freq.    1143.90  E(vib)   ...       0.01
freq.    1228.37  E(vib)   ...       0.01
freq.    1243.87  E(vib)   ...       0.01
freq.    1263.81  E(vib)   ...       0.01
freq.    1273.62  E(vib)   ...       0.01
freq.    1285.43  E(vib)   ...       0.01
freq.    1287.91  E(vib)   ...       0.01
freq.    1303.13  E(vib)   ...       0.01
freq.    1357.75  E(vib)   ...       0.01
freq.    1405.26  E(vib)   ...       0.00
freq.    1405.68  E(vib)   ...       0.00
freq.    1405.79  E(vib)   ...       0.00
freq.    1407.10  E(vib)   ...       0.00
freq.    1429.01  E(vib)   ...       0.00
freq.    1429.68  E(vib)   ...       0.00
freq.    1448.28  E(vib)   ...       0.00
freq.    1454.07  E(vib)   ...       0.00
freq.    1454.55  E(vib)   ...       0.00
freq.    1457.32  E(vib)   ...       0.00
freq.    1457.69  E(vib)   ...       0.00
freq.    1461.12  E(vib)   ...       0.00
freq.    1464.87  E(vib)   ...       0.00
freq.    1471.10  E(vib)   ...       0.00
freq.    1486.99  E(vib)   ...       0.00
freq.    1487.29  E(vib)   ...       0.00
freq.    1487.66  E(vib)   ...       0.00
freq.    1489.97  E(vib)   ...       0.00
freq.    1496.54  E(vib)   ...       0.00
freq.    1499.13  E(vib)   ...       0.00
freq.    1639.55  E(vib)   ...       0.00
freq.    1653.67  E(vib)   ...       0.00
freq.    3071.74  E(vib)   ...       0.00
freq.    3071.93  E(vib)   ...       0.00
freq.    3073.64  E(vib)   ...       0.00
freq.    3073.67  E(vib)   ...       0.00
freq.    3077.02  E(vib)   ...       0.00
freq.    3077.05  E(vib)   ...       0.00
freq.    3173.93  E(vib)   ...       0.00
freq.    3174.05  E(vib)   ...       0.00
freq.    3179.82  E(vib)   ...       0.00
freq.    3179.83  E(vib)   ...       0.00
freq.    3181.42  E(vib)   ...       0.00
freq.    3181.51  E(vib)   ...       0.00
freq.    3187.51  E(vib)   ...       0.00
freq.    3187.54  E(vib)   ...       0.00
freq.    3188.15  E(vib)   ...       0.00
freq.    3188.27  E(vib)   ...       0.00
freq.    3193.32  E(vib)   ...       0.00
freq.    3193.46  E(vib)   ...       0.00
freq.    3302.99  E(vib)   ...       0.00
freq.    3320.59  E(vib)   ...       0.00
freq.    3334.36  E(vib)   ...       0.00

------------
INNER ENERGY
------------

The inner energy is: U= E(el) + E(ZPE) + E(vib) + E(rot) + E(trans)
    E(el)   - is the total energy from the electronic structure calculation
              = E(kin-el) + E(nuc-el) + E(el-el) + E(nuc-nuc)
    E(ZPE)  - the the zero temperature vibrational energy from the frequency calculation
    E(vib)  - the the finite temperature correction to E(ZPE) due to population
              of excited vibrational states
    E(rot)  - is the rotational thermal energy
    E(trans)- is the translational thermal energy

Summary of contributions to the inner energy U:
Electronic energy                ...   -540.62070612 Eh
Zero point energy                ...      0.31182652 Eh     195.67 kcal/mol
Thermal vibrational correction   ...      0.01067782 Eh       6.70 kcal/mol
Thermal rotational correction    ...      0.00141627 Eh       0.89 kcal/mol
Thermal translational correction ...      0.00141627 Eh       0.89 kcal/mol
-----------------------------------------------------------------------
Total thermal energy                   -540.29536924 Eh

Summary of corrections to the electronic energy:
(perhaps to be used in another calculation)
Total thermal correction                  0.01351037 Eh       8.48 kcal/mol
Non-thermal (ZPE) correction              0.31182652 Eh     195.67 kcal/mol
-----------------------------------------------------------------------
Total correction                          0.32533688 Eh     204.15 kcal/mol

--------
ENTHALPY
--------

The enthalpy is H = U + kB*T
                kB is Boltzmann's constant
Total free energy                 ...   -540.29536924 Eh
Thermal Enthalpy correction       ...      0.00094421 Eh       0.59 kcal/mol
-----------------------------------------------------------------------
Total Enthalpy                    ...   -540.29442503 Eh

Note: Rotational entropy computed according to Herzberg
Infrared and Raman Spectra, Chapter V,1, Van Nostrand Reinhold, 1945
Point Group:  C2v, Symmetry Number:   2
Rotational constants in cm-1:     0.055426     0.014781     0.013815

                             ****ORCA TERMINATED NORMALLY****
TOTAL RUN TIME: 0 days 0 hours 51 minutes 8 seconds 249 msec
