                         Program Version 5.0.4 -  RELEASE  -
|  1> # ORCA 5.0.4 - 5.inp # write input file
|  2> # Basic Mode
|  3> #
|  4> ! Freq wB97X Def2-SVP D4 SlowConv TightSCF DEFGRID2 Def2/J RIJCOSX
|  5>
|  6>
|  7>
|  8> %maxcore 4500
|  9>
| 10> %geom
| 11> Maxiter 150
| 12> END
| 13>
| 14> * xyzfile 0 1 5.xyz
| 15>
| 16>                          ****END OF INPUT****

CARTESIAN COORDINATES (ANGSTROEM)
---------------------------------
  C      1.579734   -0.070019    0.405687
  C      0.817554   -1.086765    0.870978
  N      0.731124    0.751120   -0.323675
  N     -0.471048   -0.849375    0.413450
  C     -0.546956    0.286558   -0.330585
  H      2.641884    0.127496    0.538973
  H      1.091088   -1.944234    1.483192
  C      1.204689    1.993548   -0.980575
  C     -1.601417   -1.758356    0.721089
  C      0.062591    2.652647   -1.748645
  C     -1.303282   -3.133040    0.112904
  C     -1.744730   -1.864182    2.243333
  C      2.330322    1.634721   -1.956252
  H     -0.326727    1.988037   -2.533254
  H     -0.382153   -3.568621    0.530113
  H     -0.844692   -2.295397    2.707798
  H      1.969749    0.918871   -2.711611
  H     -0.770246    2.916001   -1.082165
  H     -1.185935   -3.052559   -0.979200
  H     -1.921927   -0.870205    2.683255
  H      3.193220    1.188437   -1.438789
  H      0.442918    3.571188   -2.220784
  H     -2.131533   -3.826539    0.324117
  H     -2.597092   -2.513021    2.495572
  H      2.680725    2.540414   -2.473999
  C      1.716031    2.952000    0.100670
  C     -2.895259   -1.208577    0.127855
  H      2.069278    3.887784   -0.358698
  H     -3.715203   -1.900998    0.372066
  H      0.910053    3.194888    0.810895
  H     -2.825668   -1.113946   -0.964816
  H     -3.134967   -0.217834    0.539449
  H      2.554895    2.513766    0.663194

 Total Charge           Charge          ....    0
 Multiplicity           Mult            ....    1
 Number of Electrons    NEL             ....  100
 Basis Dimension        Dim             ....  282

ORBITAL ENERGIES
----------------

  NO   OCC          E(Eh)            E(eV)
   0   2.0000     -14.436912      -392.8483
   1   2.0000     -14.436883      -392.8476
   2   2.0000     -10.315129      -280.6889
   3   2.0000     -10.315071      -280.6874
   4   2.0000     -10.290005      -280.0053
   5   2.0000     -10.289409      -279.9891
   6   2.0000     -10.266050      -279.3534
   7   2.0000     -10.265990      -279.3518
   8   2.0000     -10.265467      -279.3376
   9   2.0000     -10.265423      -279.3363
  10   2.0000     -10.259884      -279.1856
  11   2.0000     -10.252983      -278.9979
  12   2.0000     -10.252887      -278.9952
  13   2.0000      -1.136646       -30.9297
  14   2.0000      -1.036421       -28.2025
  15   2.0000      -0.949605       -25.8401
  16   2.0000      -0.898157       -24.4401
  17   2.0000      -0.860167       -23.4063
  18   2.0000      -0.812254       -22.1025
  19   2.0000      -0.811861       -22.0919
  20   2.0000      -0.807399       -21.9705
  21   2.0000      -0.799929       -21.7672
  22   2.0000      -0.754110       -20.5204
  23   2.0000      -0.713984       -19.4285
  24   2.0000      -0.655101       -17.8262
  25   2.0000      -0.645413       -17.5626
  26   2.0000      -0.615618       -16.7518
  27   2.0000      -0.578748       -15.7485
  28   2.0000      -0.576596       -15.6900
  29   2.0000      -0.558168       -15.1885
  30   2.0000      -0.555820       -15.1246
  31   2.0000      -0.549800       -14.9608
  32   2.0000      -0.535261       -14.5652
  33   2.0000      -0.526988       -14.3401
  34   2.0000      -0.526676       -14.3316
  35   2.0000      -0.505050       -13.7431
  36   2.0000      -0.491379       -13.3711
  37   2.0000      -0.482909       -13.1406
  38   2.0000      -0.478963       -13.0332
  39   2.0000      -0.470671       -12.8076
  40   2.0000      -0.466387       -12.6910
  41   2.0000      -0.465640       -12.6707
  42   2.0000      -0.461224       -12.5505
  43   2.0000      -0.445578       -12.1248
  44   2.0000      -0.436968       -11.8905
  45   2.0000      -0.433670       -11.8008
  46   2.0000      -0.429240       -11.6802
  47   2.0000      -0.361969        -9.8497
  48   2.0000      -0.316815        -8.6210
  49   2.0000      -0.295551        -8.0423
  50   0.0000       0.125778         3.4226
  51   0.0000       0.135051         3.6749
  52   0.0000       0.141751         3.8572
  53   0.0000       0.144445         3.9305
  54   0.0000       0.170694         4.6448

MULLIKEN ATOMIC CHARGES
-----------------------
   0 C :    0.035371
   1 C :    0.035059
   2 N :   -0.207847
   3 N :   -0.207523
   4 C :   -0.122805
   5 H :    0.026085
   6 H :    0.025938
   7 C :   -0.210473
   8 C :   -0.211243
   9 C :    0.081063
  10 C :    0.052535
  11 C :    0.049094
  12 C :    0.048281
  13 H :    0.033057
  14 H :    0.014695
  15 H :    0.014593
  16 H :    0.037547
  17 H :    0.037032
  18 H :    0.037575
  19 H :    0.037576
  20 H :    0.014724
  21 H :    0.012149
  22 H :    0.024347
  23 H :    0.024897
  24 H :    0.025036
  25 C :    0.053209
  26 C :    0.081370
  27 H :    0.024344
  28 H :    0.012249
  29 H :    0.037436
  30 H :    0.036450
  31 H :    0.033691
  32 H :    0.014487
Sum of atomic charges:   -0.0000000

LOEWDIN ATOMIC CHARGES
----------------------
   0 C :   -0.036173
   1 C :   -0.036163
   2 N :    0.028637
   3 N :    0.028716
   4 C :   -0.249416
   5 H :    0.024166
   6 H :    0.024151
   7 C :    0.007019
   8 C :    0.006899
   9 C :   -0.042196
  10 C :   -0.048997
  11 C :   -0.049146
  12 C :   -0.049180
  13 H :    0.030649
  14 H :    0.020332
  15 H :    0.019948
  16 H :    0.031005
  17 H :    0.031269
  18 H :    0.031099
  19 H :    0.031008
  20 H :    0.019926
  21 H :    0.021867
  22 H :    0.027445
  23 H :    0.027854
  24 H :    0.027926
  25 C :   -0.048911
  26 C :   -0.042284
  27 H :    0.027359
  28 H :    0.021822
  29 H :    0.031102
  30 H :    0.031246
  31 H :    0.030708
  32 H :    0.020316

  Mayer bond orders larger than 0.100000
B(  0-C ,  1-C ) :   1.6546 B(  0-C ,  2-N ) :   1.1149 B(  0-C ,  5-H ) :   0.9835
B(  1-C ,  3-N ) :   1.1152 B(  1-C ,  6-H ) :   0.9836 B(  2-N ,  4-C ) :   1.2357
B(  2-N ,  7-C ) :   0.8800 B(  3-N ,  4-C ) :   1.2357 B(  3-N ,  8-C ) :   0.8800
B(  7-C ,  9-C ) :   1.0637 B(  7-C , 12-C ) :   1.0402 B(  7-C , 25-C ) :   1.0403
B(  8-C , 10-C ) :   1.0402 B(  8-C , 11-C ) :   1.0404 B(  8-C , 26-C ) :   1.0641
B(  9-C , 13-H ) :   0.9563 B(  9-C , 17-H ) :   0.9549 B(  9-C , 21-H ) :   0.9635
B( 10-C , 14-H ) :   0.9622 B( 10-C , 18-H ) :   0.9675 B( 10-C , 22-H ) :   0.9713
B( 11-C , 15-H ) :   0.9626 B( 11-C , 19-H ) :   0.9676 B( 11-C , 23-H ) :   0.9710
B( 12-C , 16-H ) :   0.9676 B( 12-C , 20-H ) :   0.9627 B( 12-C , 24-H ) :   0.9711
B( 25-C , 27-H ) :   0.9713 B( 25-C , 29-H ) :   0.9675 B( 25-C , 32-H ) :   0.9622
B( 26-C , 28-H ) :   0.9634 B( 26-C , 30-H ) :   0.9549 B( 26-C , 31-H ) :   0.9558

Dispersion correction           -0.005719391
FINAL SINGLE POINT ENERGY      -540.175591077933

DIPOLE MOMENT
-------------
                                X             Y             Z
Electronic contribution:      2.45133      -1.24698       1.29930
Nuclear contribution   :     -1.80339       0.93040      -0.93358
                        -----------------------------------------
Total Dipole Moment    :      0.64794      -0.31658       0.36571
                        -----------------------------------------
Magnitude (a.u.)       :      0.80857
Magnitude (Debye)      :      2.05523

Dispersion correction in the Hessian             ... Starting D4

VIBRATIONAL FREQUENCIES
-----------------------

Scaling factor for frequencies =  1.000000000  (already applied!)

   0:         0.00 cm**-1
   1:         0.00 cm**-1
   2:         0.00 cm**-1
   3:         0.00 cm**-1
   4:         0.00 cm**-1
   5:         0.00 cm**-1
   6:        16.42 cm**-1
   7:        31.62 cm**-1
   8:       128.00 cm**-1
   9:       147.76 cm**-1
  10:       162.12 cm**-1
  11:       212.73 cm**-1
  12:       226.11 cm**-1
  13:       263.05 cm**-1
  14:       271.51 cm**-1
  15:       278.87 cm**-1
  16:       286.12 cm**-1
  17:       292.24 cm**-1
  18:       293.29 cm**-1
  19:       349.15 cm**-1
  20:       353.25 cm**-1
  21:       368.69 cm**-1
  22:       374.17 cm**-1
  23:       404.40 cm**-1
  24:       454.70 cm**-1
  25:       474.66 cm**-1
  26:       480.50 cm**-1
  27:       531.48 cm**-1
  28:       580.88 cm**-1
  29:       660.25 cm**-1
  30:       665.51 cm**-1
  31:       685.61 cm**-1
  32:       744.59 cm**-1
  33:       846.08 cm**-1
  34:       856.97 cm**-1
  35:       873.18 cm**-1
  36:       942.51 cm**-1
  37:       942.96 cm**-1
  38:       951.27 cm**-1
  39:       953.16 cm**-1
  40:       965.26 cm**-1
  41:       965.94 cm**-1
  42:      1005.68 cm**-1
  43:      1023.38 cm**-1
  44:      1042.83 cm**-1
  45:      1044.70 cm**-1
  46:      1050.85 cm**-1
  47:      1051.23 cm**-1
  48:      1104.99 cm**-1
  49:      1158.88 cm**-1
  50:      1224.05 cm**-1
  51:      1263.44 cm**-1
  52:      1263.77 cm**-1
  53:      1274.88 cm**-1
  54:      1275.68 cm**-1
  55:      1288.08 cm**-1
  56:      1364.34 cm**-1
  57:      1380.55 cm**-1
  58:      1393.58 cm**-1
  59:      1394.40 cm**-1
  60:      1394.86 cm**-1
  61:      1407.68 cm**-1
  62:      1416.90 cm**-1
  63:      1418.71 cm**-1
  64:      1421.33 cm**-1
  65:      1444.94 cm**-1
  66:      1445.22 cm**-1
  67:      1452.41 cm**-1
  68:      1454.77 cm**-1
  69:      1458.07 cm**-1
  70:      1460.14 cm**-1
  71:      1463.95 cm**-1
  72:      1474.41 cm**-1
  73:      1475.00 cm**-1
  74:      1480.90 cm**-1
  75:      1482.86 cm**-1
  76:      1494.83 cm**-1
  77:      1497.07 cm**-1
  78:      1664.77 cm**-1
  79:      3064.18 cm**-1
  80:      3064.42 cm**-1
  81:      3067.52 cm**-1
  82:      3067.68 cm**-1
  83:      3078.74 cm**-1
  84:      3079.21 cm**-1
  85:      3166.66 cm**-1
  86:      3166.98 cm**-1
  87:      3169.73 cm**-1
  88:      3170.09 cm**-1
  89:      3170.36 cm**-1
  90:      3170.52 cm**-1
  91:      3171.70 cm**-1
  92:      3171.91 cm**-1
  93:      3178.45 cm**-1
  94:      3179.04 cm**-1
  95:      3193.60 cm**-1
  96:      3194.57 cm**-1
  97:      3280.37 cm**-1
  98:      3302.71 cm**-1

IR SPECTRUM
-----------

 Mode   freq       eps      Int      T**2         TX        TY        TZ
       cm**-1   L/(mol*cm) km/mol    a.u.
----------------------------------------------------------------------------
  6:     16.42   0.000018    0.09  0.000347  (-0.003773  0.010148  0.015154)
  7:     31.62   0.000001    0.00  0.000006  (-0.000553  0.001695  0.001720)
  8:    128.00   0.001580    7.98  0.003852  ( 0.012799 -0.032657 -0.051201)
  9:    147.76   0.000126    0.64  0.000267  (-0.012882  0.005403 -0.008467)
 10:    162.12   0.000004    0.02  0.000007  (-0.000028 -0.001436 -0.002251)
 11:    212.73   0.000046    0.23  0.000068  (-0.001581  0.005191  0.006222)
 12:    226.11   0.000019    0.10  0.000027  (-0.000148  0.003305  0.003984)
 13:    263.05   0.000173    0.88  0.000206  ( 0.008237  0.010323 -0.005584)
 14:    271.51   0.000034    0.17  0.000039  ( 0.005135  0.003237 -0.001550)
 15:    278.87   0.000146    0.74  0.000164  ( 0.005379  0.009278 -0.006991)
 16:    286.12   0.000010    0.05  0.000011  (-0.000813 -0.002908 -0.001305)
 17:    292.24   0.000086    0.44  0.000092  (-0.006720 -0.005490  0.004093)
 18:    293.29   0.000028    0.14  0.000030  (-0.002835 -0.004625  0.000452)
 19:    349.15   0.000565    2.85  0.000505  ( 0.003854 -0.012249 -0.018431)
 20:    353.25   0.000115    0.58  0.000102  (-0.008558  0.003929 -0.003645)
 21:    368.69   0.000005    0.03  0.000004  (-0.000702 -0.001727  0.000856)
 22:    374.17   0.000583    2.94  0.000486  (-0.011927 -0.016974  0.007449)
 23:    404.40   0.000232    1.17  0.000179  ( 0.007806  0.009314 -0.005625)
 24:    454.70   0.001249    6.31  0.000857  (-0.006288  0.015111  0.024273)
 25:    474.66   0.000005    0.02  0.000003  (-0.001394 -0.000105 -0.001034)
 26:    480.50   0.000259    1.31  0.000168  ( 0.010422 -0.004743  0.006101)
 27:    531.48   0.000965    4.88  0.000567  (-0.013249 -0.018116  0.007942)
 28:    580.88   0.000221    1.12  0.000119  ( 0.008569 -0.004638  0.004870)
 29:    660.25   0.003600   18.19  0.001702  ( 0.024199  0.027653 -0.018743)
 30:    665.51   0.001332    6.73  0.000624  ( 0.000487  0.019145  0.016052)
 31:    685.61   0.000006    0.03  0.000003  (-0.000380  0.001022  0.001250)
 32:    744.59   0.006716   33.94  0.002815  ( 0.010865 -0.027517 -0.044040)
 33:    846.08   0.000007    0.04  0.000003  ( 0.001275 -0.000810  0.000597)
 34:    856.97   0.000789    3.99  0.000287  ( 0.009539  0.012868 -0.005551)
 35:    873.18   0.000027    0.14  0.000010  (-0.000192  0.001595  0.002640)
 36:    942.51   0.000151    0.76  0.000050  (-0.003092  0.003122  0.005539)
 37:    942.96   0.000061    0.31  0.000020  (-0.000145  0.001066  0.004346)
 38:    951.27   0.000239    1.21  0.000078  (-0.006215  0.004732 -0.004166)
 39:    953.16   0.000171    0.87  0.000056  ( 0.006580 -0.001330  0.003321)
 40:    965.26   0.000030    0.15  0.000010  (-0.001313  0.000983  0.002656)
 41:    965.94   0.000037    0.19  0.000012  (-0.000356  0.001878  0.002881)
 42:   1005.68   0.002544   12.86  0.000790  ( 0.015689  0.021183 -0.009732)
 43:   1023.38   0.000185    0.94  0.000056  (-0.005471  0.003645 -0.003642)
 44:   1042.83   0.000009    0.05  0.000003  (-0.001678 -0.000055  0.000117)
 45:   1044.70   0.000028    0.14  0.000008  (-0.001476 -0.002069  0.001380)
 46:   1050.85   0.000140    0.71  0.000042  (-0.001619  0.003132  0.005403)
 47:   1051.23   0.000025    0.13  0.000008  ( 0.000258 -0.001500 -0.002287)
 48:   1104.99   0.003235   16.35  0.000913  (-0.023606  0.012904 -0.013773)
 49:   1158.88   0.001050    5.31  0.000283  (-0.010984 -0.011466  0.005531)
 50:   1224.05   0.000373    1.89  0.000095  (-0.007624  0.004380 -0.004220)
 51:   1263.44   0.011699   59.12  0.002889  (-0.031622 -0.040251  0.016414)
 52:   1263.77   0.002837   14.34  0.000701  ( 0.011201  0.021729 -0.010145)
 53:   1274.88   0.000001    0.00  0.000000  ( 0.000153  0.000110  0.000349)
 54:   1275.68   0.003323   16.79  0.000813  ( 0.004625 -0.016213 -0.022992)
 55:   1288.08   0.021502  108.66  0.005209  (-0.041155 -0.053169  0.026243)
 56:   1364.34   0.000936    4.73  0.000214  (-0.008553 -0.010700  0.005138)
 57:   1380.55   0.000333    1.68  0.000075  (-0.006852  0.003318 -0.004154)
 58:   1393.58   0.001787    9.03  0.000400  (-0.016162  0.009073 -0.007532)
 59:   1394.40   0.001893    9.57  0.000424  ( 0.008216 -0.012916 -0.013757)
 60:   1394.86   0.006589   33.30  0.001474  ( 0.002902 -0.020030 -0.032628)
 61:   1407.68   0.001551    7.84  0.000344  (-0.010850 -0.012647  0.008131)
 62:   1416.90   0.002245   11.35  0.000494  ( 0.018291 -0.008199  0.009627)
 63:   1418.71   0.004836   24.44  0.001064  ( 0.019093  0.023542 -0.012036)
 64:   1421.33   0.007709   38.96  0.001693  (-0.032601  0.017505 -0.017982)
 65:   1444.94   0.000008    0.04  0.000002  (-0.001222  0.000313  0.000458)
 66:   1445.22   0.000136    0.69  0.000029  ( 0.001284  0.003528  0.003913)
 67:   1452.41   0.000529    2.67  0.000114  ( 0.005851  0.007903 -0.004111)
 68:   1454.77   0.000015    0.08  0.000003  (-0.000224 -0.001179  0.001342)
 69:   1458.07   0.000001    0.00  0.000000  ( 0.000280  0.000257  0.000019)
 70:   1460.14   0.000011    0.06  0.000002  ( 0.000110  0.001541  0.000041)
 71:   1463.95   0.017270   87.28  0.003681  ( 0.034358  0.045131 -0.021544)
 72:   1474.41   0.000649    3.28  0.000137  (-0.001723 -0.009270 -0.006960)
 73:   1475.00   0.000828    4.19  0.000175  ( 0.000259 -0.009126 -0.009586)
 74:   1480.90   0.002301   11.63  0.000485  ( 0.018217  0.011920 -0.003293)
 75:   1482.86   0.001606    8.11  0.000338  (-0.002916  0.015398 -0.009608)
 76:   1494.83   0.000075    0.38  0.000016  (-0.000190 -0.003220  0.002306)
 77:   1497.07   0.000407    2.06  0.000085  (-0.008032  0.003074 -0.003310)
 78:   1664.77   0.000001    0.01  0.000000  ( 0.000422 -0.000178  0.000151)
 79:   3064.18   0.002693   13.61  0.000274  ( 0.003642 -0.011830 -0.011003)
 80:   3064.42   0.003411   17.24  0.000347  ( 0.000457 -0.010731 -0.015232)
 81:   3067.52   0.002322   11.74  0.000236  ( 0.003789  0.009537 -0.011443)
 82:   3067.68   0.003087   15.60  0.000314  (-0.016552  0.003966 -0.004933)
 83:   3078.74   0.003220   16.27  0.000326  ( 0.016462  0.007185 -0.001944)
 84:   3079.21   0.002851   14.41  0.000289  ( 0.003290 -0.013038  0.010400)
 85:   3166.66   0.000551    2.78  0.000054  ( 0.004233 -0.005852 -0.001454)
 86:   3166.98   0.000526    2.66  0.000052  (-0.004424 -0.001286 -0.005534)
 87:   3169.73   0.002975   15.04  0.000293  ( 0.013342 -0.006765  0.008315)
 88:   3170.09   0.003559   17.99  0.000350  (-0.013854  0.006652 -0.010685)
 89:   3170.36   0.001834    9.27  0.000180  (-0.001306  0.001826 -0.013246)
 90:   3170.52   0.003569   18.04  0.000351  (-0.017457  0.006510  0.002038)
 91:   3171.70   0.002251   11.37  0.000221  (-0.007231 -0.012681  0.002890)
 92:   3171.91   0.001293    6.53  0.000127  (-0.008108  0.004970 -0.006062)
 93:   3178.45   0.018789   94.95  0.001845  (-0.023251 -0.033963  0.012274)
 94:   3179.04   0.000386    1.95  0.000038  (-0.005784  0.001835 -0.001032)
 95:   3193.60   0.001728    8.73  0.000169  ( 0.003108 -0.005520 -0.011345)
 96:   3194.57   0.001427    7.21  0.000139  (-0.004423  0.003525  0.010365)
 97:   3280.37   0.000080    0.40  0.000008  (-0.001348 -0.002175  0.001026)
 98:   3302.71   0.000133    0.67  0.000013  (-0.002924  0.001238 -0.001562)

--------------------------
THERMOCHEMISTRY AT 298.15K
--------------------------

Temperature         ... 298.15 K
Pressure            ... 1.00 atm
Total Mass          ... 180.29 AMU

Throughout the following assumptions are being made:
  (1) The electronic state is orbitally nondegenerate
  (2) There are no thermally accessible electronically excited states
  (3) Hindered rotations indicated by low frequency modes are not
      treated as such but are treated as vibrations and this may
      cause some error
  (4) All equations used are the standard statistical mechanics
      equations for an ideal gas
  (5) All vibrations are strictly harmonic

freq.      16.42  E(vib)   ...       0.57
freq.      31.62  E(vib)   ...       0.55
freq.     128.00  E(vib)   ...       0.43
freq.     147.76  E(vib)   ...       0.41
freq.     162.12  E(vib)   ...       0.39
freq.     212.73  E(vib)   ...       0.34
freq.     226.11  E(vib)   ...       0.33
freq.     263.05  E(vib)   ...       0.29
freq.     271.51  E(vib)   ...       0.29
freq.     278.87  E(vib)   ...       0.28
freq.     286.12  E(vib)   ...       0.27
freq.     292.24  E(vib)   ...       0.27
freq.     293.29  E(vib)   ...       0.27
freq.     349.15  E(vib)   ...       0.23
freq.     353.25  E(vib)   ...       0.22
freq.     368.69  E(vib)   ...       0.21
freq.     374.17  E(vib)   ...       0.21
freq.     404.40  E(vib)   ...       0.19
freq.     454.70  E(vib)   ...       0.16
freq.     474.66  E(vib)   ...       0.15
freq.     480.50  E(vib)   ...       0.15
freq.     531.48  E(vib)   ...       0.13
freq.     580.88  E(vib)   ...       0.11
freq.     660.25  E(vib)   ...       0.08
freq.     665.51  E(vib)   ...       0.08
freq.     685.61  E(vib)   ...       0.07
freq.     744.59  E(vib)   ...       0.06
freq.     846.08  E(vib)   ...       0.04
freq.     856.97  E(vib)   ...       0.04
freq.     873.18  E(vib)   ...       0.04
freq.     942.51  E(vib)   ...       0.03
freq.     942.96  E(vib)   ...       0.03
freq.     951.27  E(vib)   ...       0.03
freq.     953.16  E(vib)   ...       0.03
freq.     965.26  E(vib)   ...       0.03
freq.     965.94  E(vib)   ...       0.03
freq.    1005.68  E(vib)   ...       0.02
freq.    1023.38  E(vib)   ...       0.02
freq.    1042.83  E(vib)   ...       0.02
freq.    1044.70  E(vib)   ...       0.02
freq.    1050.85  E(vib)   ...       0.02
freq.    1051.23  E(vib)   ...       0.02
freq.    1104.99  E(vib)   ...       0.02
freq.    1158.88  E(vib)   ...       0.01
freq.    1224.05  E(vib)   ...       0.01
freq.    1263.44  E(vib)   ...       0.01
freq.    1263.77  E(vib)   ...       0.01
freq.    1274.88  E(vib)   ...       0.01
freq.    1275.68  E(vib)   ...       0.01
freq.    1288.08  E(vib)   ...       0.01
freq.    1364.34  E(vib)   ...       0.01
freq.    1380.55  E(vib)   ...       0.01
freq.    1393.58  E(vib)   ...       0.00
freq.    1394.40  E(vib)   ...       0.00
freq.    1394.86  E(vib)   ...       0.00
freq.    1407.68  E(vib)   ...       0.00
freq.    1416.90  E(vib)   ...       0.00
freq.    1418.71  E(vib)   ...       0.00
freq.    1421.33  E(vib)   ...       0.00
freq.    1444.94  E(vib)   ...       0.00
freq.    1445.22  E(vib)   ...       0.00
freq.    1452.41  E(vib)   ...       0.00
freq.    1454.77  E(vib)   ...       0.00
freq.    1458.07  E(vib)   ...       0.00
freq.    1460.14  E(vib)   ...       0.00
freq.    1463.95  E(vib)   ...       0.00
freq.    1474.41  E(vib)   ...       0.00
freq.    1475.00  E(vib)   ...       0.00
freq.    1480.90  E(vib)   ...       0.00
freq.    1482.86  E(vib)   ...       0.00
freq.    1494.83  E(vib)   ...       0.00
freq.    1497.07  E(vib)   ...       0.00
freq.    1664.77  E(vib)   ...       0.00
freq.    3064.18  E(vib)   ...       0.00
freq.    3064.42  E(vib)   ...       0.00
freq.    3067.52  E(vib)   ...       0.00
freq.    3067.68  E(vib)   ...       0.00
freq.    3078.74  E(vib)   ...       0.00
freq.    3079.21  E(vib)   ...       0.00
freq.    3166.66  E(vib)   ...       0.00
freq.    3166.98  E(vib)   ...       0.00
freq.    3169.73  E(vib)   ...       0.00
freq.    3170.09  E(vib)   ...       0.00
freq.    3170.36  E(vib)   ...       0.00
freq.    3170.52  E(vib)   ...       0.00
freq.    3171.70  E(vib)   ...       0.00
freq.    3171.91  E(vib)   ...       0.00
freq.    3178.45  E(vib)   ...       0.00
freq.    3179.04  E(vib)   ...       0.00
freq.    3193.60  E(vib)   ...       0.00
freq.    3194.57  E(vib)   ...       0.00
freq.    3280.37  E(vib)   ...       0.00
freq.    3302.71  E(vib)   ...       0.00

------------
INNER ENERGY
------------

The inner energy is: U= E(el) + E(ZPE) + E(vib) + E(rot) + E(trans)
    E(el)   - is the total energy from the electronic structure calculation
              = E(kin-el) + E(nuc-el) + E(el-el) + E(nuc-nuc)
    E(ZPE)  - the the zero temperature vibrational energy from the frequency calculation
    E(vib)  - the the finite temperature correction to E(ZPE) due to population
              of excited vibrational states
    E(rot)  - is the rotational thermal energy
    E(trans)- is the translational thermal energy

Summary of contributions to the inner energy U:
Electronic energy                ...   -540.17559108 Eh
Zero point energy                ...      0.29743207 Eh     186.64 kcal/mol
Thermal vibrational correction   ...      0.01166391 Eh       7.32 kcal/mol
Thermal rotational correction    ...      0.00141627 Eh       0.89 kcal/mol
Thermal translational correction ...      0.00141627 Eh       0.89 kcal/mol
-----------------------------------------------------------------------
Total thermal energy                   -539.86366256 Eh

Summary of corrections to the electronic energy:
(perhaps to be used in another calculation)
Total thermal correction                  0.01449645 Eh       9.10 kcal/mol
Non-thermal (ZPE) correction              0.29743207 Eh     186.64 kcal/mol
-----------------------------------------------------------------------
Total correction                          0.31192852 Eh     195.74 kcal/mol

--------
ENTHALPY
--------

The enthalpy is H = U + kB*T
                kB is Boltzmann's constant
Total free energy                 ...   -539.86366256 Eh
Thermal Enthalpy correction       ...      0.00094421 Eh       0.59 kcal/mol
-----------------------------------------------------------------------
Total Enthalpy                    ...   -539.86271835 Eh

Note: Only C1 symmetry has been detected, increase convergence thresholds
      if your molecule has a higher symmetry. Symmetry factor of 1.0 is
      used for the rotational entropy correction.

Note: Rotational entropy computed according to Herzberg
Infrared and Raman Spectra, Chapter V,1, Van Nostrand Reinhold, 1945

Rotational constants in cm-1:     0.056252     0.014839     0.013903

                             ****ORCA TERMINATED NORMALLY****
TOTAL RUN TIME: 0 days 0 hours 49 minutes 36 seconds 762 msec
