                         Program Version 5.0.4 -  RELEASE  -
|  1> ! SP wB97X D4 def2-SVP def2/J defgrid2
|  2> %maxcore 3000
|  3> %PAL NPROCS 4 END
|  4> * xyz 1 1
|  5> C 0.0 0.6854 -1.3121
|  6> C -0.0 -0.6854 -1.3121
|  7> C 0.0 -0.0 0.7885
|  8> N 0.0 1.0827 0.0167
|  9> N 0.0 -1.0827 0.0167
| 10> H 0.0 -0.0 1.879
| 11> C 0.0 1.6515 -2.4469
| 12> C -0.0 -1.6515 -2.4469
| 13> H -0.8923 2.2957 -2.4249
| 14> H -0.8923 -2.2957 -2.4249
| 15> H 0.8923 -2.2957 -2.4249
| 16> H 0.8923 2.2957 -2.4249
| 17> H -0.0 1.1042 -3.3979
| 18> H -0.0 -1.1042 -3.398
| 19> C -1.2728 2.7509 1.3049
| 20> C -1.2728 -2.7509 1.3049
| 21> C 1.2728 -2.7509 1.3049
| 22> C 1.2728 2.7509 1.3049
| 23> C 0.0 2.4737 0.5168
| 24> C 0.0 -2.4737 0.5168
| 25> H -2.1658 2.5355 0.6997
| 26> H -2.1658 -2.5355 0.6997
| 27> H 2.1658 -2.5355 0.6997
| 28> H 2.1658 2.5355 0.6997
| 29> H -1.311 2.1431 2.2229
| 30> H -1.311 -2.1431 2.2229
| 31> H 1.311 -2.1431 2.2229
| 32> H 1.311 2.1431 2.2229
| 33> H -1.2974 3.8105 1.5974
| 34> H -1.2974 -3.8105 1.5974
| 35> H 1.2974 -3.8105 1.5974
| 36> H 1.2974 3.8105 1.5974
| 37> H 0.0 3.0978 -0.387
| 38> H 0.0 -3.0978 -0.387
| 39> **                         ****END OF INPUT****

CARTESIAN COORDINATES (ANGSTROEM)
---------------------------------
  C      0.000000    0.685400   -1.312100
  C     -0.000000   -0.685400   -1.312100
  C      0.000000   -0.000000    0.788500
  N      0.000000    1.082700    0.016700
  N      0.000000   -1.082700    0.016700
  H      0.000000   -0.000000    1.879000
  C      0.000000    1.651500   -2.446900
  C     -0.000000   -1.651500   -2.446900
  H     -0.892300    2.295700   -2.424900
  H     -0.892300   -2.295700   -2.424900
  H      0.892300   -2.295700   -2.424900
  H      0.892300    2.295700   -2.424900
  H     -0.000000    1.104200   -3.397900
  H     -0.000000   -1.104200   -3.398000
  C     -1.272800    2.750900    1.304900
  C     -1.272800   -2.750900    1.304900
  C      1.272800   -2.750900    1.304900
  C      1.272800    2.750900    1.304900
  C      0.000000    2.473700    0.516800
  C      0.000000   -2.473700    0.516800
  H     -2.165800    2.535500    0.699700
  H     -2.165800   -2.535500    0.699700
  H      2.165800   -2.535500    0.699700
  H      2.165800    2.535500    0.699700
  H     -1.311000    2.143100    2.222900
  H     -1.311000   -2.143100    2.222900
  H      1.311000   -2.143100    2.222900
  H      1.311000    2.143100    2.222900
  H     -1.297400    3.810500    1.597400
  H     -1.297400   -3.810500    1.597400
  H      1.297400   -3.810500    1.597400
  H      1.297400    3.810500    1.597400
  H      0.000000    3.097800   -0.387000
  H      0.000000   -3.097800   -0.387000

 Total Charge           Charge          ....    1
 Multiplicity           Mult            ....    1
 Number of Electrons    NEL             ....  100
 Basis Dimension        Dim             ....  287

ORBITAL ENERGIES
----------------

  NO   OCC          E(Eh)            E(eV)
   0   2.0000     -14.638260      -398.3273
   1   2.0000     -14.638243      -398.3268
   2   2.0000     -10.515289      -286.1356
   3   2.0000     -10.467708      -284.8408
   4   2.0000     -10.467684      -284.8402
   5   2.0000     -10.467382      -284.8319
   6   2.0000     -10.466897      -284.8188
   7   2.0000     -10.419540      -283.5301
   8   2.0000     -10.419482      -283.5285
   9   2.0000     -10.403414      -283.0913
  10   2.0000     -10.403414      -283.0913
  11   2.0000     -10.403412      -283.0912
  12   2.0000     -10.403405      -283.0911
  13   2.0000      -1.345039       -36.6004
  14   2.0000      -1.227231       -33.3946
  15   2.0000      -1.102011       -29.9872
  16   2.0000      -1.073148       -29.2018
  17   2.0000      -1.047857       -28.5136
  18   2.0000      -0.999296       -27.1922
  19   2.0000      -0.960782       -26.1442
  20   2.0000      -0.951119       -25.8813
  21   2.0000      -0.950104       -25.8536
  22   2.0000      -0.938325       -25.5331
  23   2.0000      -0.869769       -23.6676
  24   2.0000      -0.859453       -23.3869
  25   2.0000      -0.830439       -22.5974
  26   2.0000      -0.780379       -21.2352
  27   2.0000      -0.764414       -20.8008
  28   2.0000      -0.750707       -20.4278
  29   2.0000      -0.730826       -19.8868
  30   2.0000      -0.704846       -19.1798
  31   2.0000      -0.697057       -18.9679
  32   2.0000      -0.692117       -18.8335
  33   2.0000      -0.675379       -18.3780
  34   2.0000      -0.669755       -18.2250
  35   2.0000      -0.666581       -18.1386
  36   2.0000      -0.656204       -17.8562
  37   2.0000      -0.649812       -17.6823
  38   2.0000      -0.646530       -17.5930
  39   2.0000      -0.637969       -17.3600
  40   2.0000      -0.631533       -17.1849
  41   2.0000      -0.622112       -16.9285
  42   2.0000      -0.619368       -16.8539
  43   2.0000      -0.613255       -16.6875
  44   2.0000      -0.599719       -16.3192
  45   2.0000      -0.590565       -16.0701
  46   2.0000      -0.587360       -15.9829
  47   2.0000      -0.585556       -15.9338
  48   2.0000      -0.539872       -14.6907
  49   2.0000      -0.482536       -13.1305
  50   0.0000      -0.078166        -2.1270
  51   0.0000      -0.025084        -0.6826
  52   0.0000      -0.003242        -0.0882
  53   0.0000       0.003906         0.1063
  54   0.0000       0.015036         0.4091

MULLIKEN ATOMIC CHARGES
-----------------------
   0 C :   -0.092773
   1 C :   -0.092742
   2 C :    0.195043
   3 N :   -0.186346
   4 N :   -0.186345
   5 H :    0.102702
   6 C :    0.069627
   7 C :    0.069555
   8 H :    0.081752
   9 H :    0.081755
  10 H :    0.081755
  11 H :    0.081752
  12 H :    0.058146
  13 H :    0.058189
  14 C :   -0.001136
  15 C :   -0.001136
  16 C :   -0.001139
  17 C :   -0.001135
  18 C :   -0.081993
  19 C :   -0.081993
  20 H :    0.061137
  21 H :    0.061137
  22 H :    0.061138
  23 H :    0.061137
  24 H :    0.040730
  25 H :    0.040731
  26 H :    0.040732
  27 H :    0.040731
  28 H :    0.078753
  29 H :    0.078753
  30 H :    0.078753
  31 H :    0.078753
  32 H :    0.061988
  33 H :    0.061989
Sum of atomic charges:    1.0000000

LOEWDIN ATOMIC CHARGES
----------------------
   0 C :   -0.006152
   1 C :   -0.006156
   2 C :    0.102876
   3 N :    0.096710
   4 N :    0.096710
   5 H :    0.049518
   6 C :   -0.049805
   7 C :   -0.049819
   8 H :    0.053781
   9 H :    0.053779
  10 H :    0.053779
  11 H :    0.053781
  12 H :    0.054607
  13 H :    0.054629
  14 C :   -0.049971
  15 C :   -0.049971
  16 C :   -0.049971
  17 C :   -0.049971
  18 C :    0.033042
  19 C :    0.033042
  20 H :    0.039719
  21 H :    0.039719
  22 H :    0.039719
  23 H :    0.039719
  24 H :    0.031368
  25 H :    0.031368
  26 H :    0.031368
  27 H :    0.031368
  28 H :    0.052098
  29 H :    0.052098
  30 H :    0.052098
  31 H :    0.052098
  32 H :    0.041413
  33 H :    0.041412

  Mayer bond orders larger than 0.100000
B(  0-C ,  1-C ) :   1.6075 B(  0-C ,  3-N ) :   1.1742 B(  0-C ,  6-C ) :   1.0826
B(  1-C ,  4-N ) :   1.1742 B(  1-C ,  7-C ) :   1.0826 B(  2-C ,  3-N ) :   1.3462
B(  2-C ,  4-N ) :   1.3462 B(  2-C ,  5-H ) :   0.9718 B(  3-N , 18-C ) :   0.8371
B(  4-N , 19-C ) :   0.8371 B(  6-C ,  8-H ) :   0.9482 B(  6-C , 11-H ) :   0.9482
B(  6-C , 12-H ) :   0.9397 B(  7-C ,  9-H ) :   0.9482 B(  7-C , 10-H ) :   0.9482
B(  7-C , 13-H ) :   0.9397 B( 14-C , 18-C ) :   1.0658 B( 14-C , 20-H ) :   0.9674
B( 14-C , 24-H ) :   0.9626 B( 14-C , 28-H ) :   0.9683 B( 15-C , 19-C ) :   1.0658
B( 15-C , 21-H ) :   0.9674 B( 15-C , 25-H ) :   0.9626 B( 15-C , 29-H ) :   0.9683
B( 16-C , 19-C ) :   1.0658 B( 16-C , 22-H ) :   0.9674 B( 16-C , 26-H ) :   0.9626
B( 16-C , 30-H ) :   0.9683 B( 17-C , 18-C ) :   1.0658 B( 17-C , 23-H ) :   0.9674
B( 17-C , 27-H ) :   0.9626 B( 17-C , 31-H ) :   0.9683 B( 18-C , 32-H ) :   0.9348
B( 19-C , 33-H ) :   0.9348

Dispersion correction           -0.005609374
FINAL SINGLE POINT ENERGY      -540.632657070689

DIPOLE MOMENT
-------------
                                X             Y             Z
Electronic contribution:     -0.00000      -0.00000      -2.78967
Nuclear contribution   :      0.00000       0.00000       2.79979
                        -----------------------------------------
Total Dipole Moment    :     -0.00000      -0.00000       0.01013
                        -----------------------------------------
Magnitude (a.u.)       :      0.01013
Magnitude (Debye)      :      0.02574

Rotational constants in cm-1:     0.035300     0.019158     0.014917
Rotational constants in MHz :  1058.272820   574.348244   447.188919

                             ****ORCA TERMINATED NORMALLY****
TOTAL RUN TIME: 0 days 0 hours 1 minutes 55 seconds 702 msec
