                         Program Version 5.0.4 -  RELEASE  -
|  1> # ORCA 5.0.4 - 6+.inp # write input file
|  2> # Basic Mode
|  3> #
|  4> ! Freq wB97X Def2-SVP D4 SlowConv TightSCF DEFGRID2 Def2/J RIJCOSX
|  5>
|  6>
|  7>
|  8> %maxcore 4500
|  9>
| 10> %geom
| 11> Maxiter 150
| 12> END
| 13>
| 14> * xyzfile 1 1 6+.xyz
| 15>
| 16>                          ****END OF INPUT****

CARTESIAN COORDINATES (ANGSTROEM)
---------------------------------
  C      0.000001    0.685393   -1.312082
  C     -0.000001   -0.685394   -1.312082
  C      0.000003   -0.000000    0.788497
  N      0.000002    1.082684    0.016686
  N      0.000003   -1.082685    0.016686
  H      0.000005   -0.000000    1.878988
  C      0.000000    1.651535   -2.446855
  C     -0.000006   -1.651535   -2.446855
  H     -0.892273    2.295745   -2.424875
  H     -0.892280   -2.295742   -2.424874
  H      0.892267   -2.295746   -2.424879
  H      0.892274    2.295743   -2.424877
  H     -0.000002    1.104250   -3.397949
  H     -0.000007   -1.104250   -3.397950
  C     -1.272798    2.750880    1.304911
  C     -1.272798   -2.750881    1.304909
  C      1.272799   -2.750879    1.304917
  C      1.272798    2.750881    1.304914
  C      0.000001    2.473685    0.516828
  C      0.000003   -2.473685    0.516828
  H     -2.165788    2.535527    0.699702
  H     -2.165787   -2.535527    0.699699
  H      2.165791   -2.535521    0.699713
  H      2.165790    2.535527    0.699707
  H     -1.311003    2.143122    2.222918
  H     -1.311002   -2.143124    2.222917
  H      1.310996   -2.143125    2.222926
  H      1.311000    2.143124    2.222922
  H     -1.297447    3.810527    1.597396
  H     -1.297447   -3.810528    1.597393
  H      1.297449   -3.810527    1.597398
  H      1.297447    3.810528    1.597397
  H      0.000002    3.097783   -0.387027
  H      0.000006   -3.097784   -0.387027

 Total Charge           Charge          ....    1
 Multiplicity           Mult            ....    1
 Number of Electrons    NEL             ....  100
 Basis Dimension        Dim             ....  287

ORBITAL ENERGIES
----------------

  NO   OCC          E(Eh)            E(eV)
   0   2.0000     -14.638264      -398.3274
   1   2.0000     -14.638246      -398.3269
   2   2.0000     -10.515300      -286.1359
   3   2.0000     -10.467700      -284.8406
   4   2.0000     -10.467676      -284.8399
   5   2.0000     -10.467387      -284.8321
   6   2.0000     -10.466903      -284.8189
   7   2.0000     -10.419535      -283.5300
   8   2.0000     -10.419478      -283.5284
   9   2.0000     -10.403419      -283.0914
  10   2.0000     -10.403418      -283.0914
  11   2.0000     -10.403416      -283.0914
  12   2.0000     -10.403410      -283.0912
  13   2.0000      -1.345055       -36.6008
  14   2.0000      -1.227235       -33.3948
  15   2.0000      -1.102013       -29.9873
  16   2.0000      -1.073148       -29.2018
  17   2.0000      -1.047858       -28.5137
  18   2.0000      -0.999294       -27.1922
  19   2.0000      -0.960786       -26.1443
  20   2.0000      -0.951120       -25.8813
  21   2.0000      -0.950105       -25.8537
  22   2.0000      -0.938326       -25.5331
  23   2.0000      -0.869770       -23.6677
  24   2.0000      -0.859455       -23.3870
  25   2.0000      -0.830446       -22.5976
  26   2.0000      -0.780375       -21.2351
  27   2.0000      -0.764423       -20.8010
  28   2.0000      -0.750707       -20.4278
  29   2.0000      -0.730817       -19.8865
  30   2.0000      -0.704852       -19.1800
  31   2.0000      -0.697064       -18.9681
  32   2.0000      -0.692117       -18.8335
  33   2.0000      -0.675379       -18.3780
  34   2.0000      -0.669751       -18.2249
  35   2.0000      -0.666587       -18.1388
  36   2.0000      -0.656201       -17.8561
  37   2.0000      -0.649805       -17.6821
  38   2.0000      -0.646537       -17.5932
  39   2.0000      -0.637960       -17.3598
  40   2.0000      -0.631535       -17.1849
  41   2.0000      -0.622104       -16.9283
  42   2.0000      -0.619359       -16.8536
  43   2.0000      -0.613251       -16.6874
  44   2.0000      -0.599717       -16.3191
  45   2.0000      -0.590570       -16.0702
  46   2.0000      -0.587361       -15.9829
  47   2.0000      -0.585553       -15.9337
  48   2.0000      -0.539880       -14.6909
  49   2.0000      -0.482542       -13.1306
  50   0.0000      -0.078166        -2.1270
  51   0.0000      -0.025083        -0.6825
  52   0.0000      -0.003242        -0.0882
  53   0.0000       0.003906         0.1063
  54   0.0000       0.015034         0.4091

MULLIKEN ATOMIC CHARGES
-----------------------
   0 C :   -0.092756
   1 C :   -0.092757
   2 C :    0.195060
   3 N :   -0.186326
   4 N :   -0.186326
   5 H :    0.102681
   6 C :    0.069574
   7 C :    0.069575
   8 H :    0.081749
   9 H :    0.081749
  10 H :    0.081750
  11 H :    0.081749
  12 H :    0.058178
  13 H :    0.058178
  14 C :   -0.001133
  15 C :   -0.001133
  16 C :   -0.001135
  17 C :   -0.001134
  18 C :   -0.082028
  19 C :   -0.082028
  20 H :    0.061133
  21 H :    0.061134
  22 H :    0.061133
  23 H :    0.061134
  24 H :    0.040735
  25 H :    0.040735
  26 H :    0.040735
  27 H :    0.040735
  28 H :    0.078763
  29 H :    0.078762
  30 H :    0.078763
  31 H :    0.078763
  32 H :    0.061994
  33 H :    0.061995
Sum of atomic charges:    1.0000000

LOEWDIN ATOMIC CHARGES
----------------------
   0 C :   -0.006155
   1 C :   -0.006155
   2 C :    0.102873
   3 N :    0.096722
   4 N :    0.096722
   5 H :    0.049510
   6 C :   -0.049819
   7 C :   -0.049819
   8 H :    0.053776
   9 H :    0.053775
  10 H :    0.053776
  11 H :    0.053776
  12 H :    0.054625
  13 H :    0.054625
  14 C :   -0.049972
  15 C :   -0.049972
  16 C :   -0.049972
  17 C :   -0.049972
  18 C :    0.033024
  19 C :    0.033024
  20 H :    0.039717
  21 H :    0.039717
  22 H :    0.039717
  23 H :    0.039717
  24 H :    0.031367
  25 H :    0.031367
  26 H :    0.031367
  27 H :    0.031367
  28 H :    0.052108
  29 H :    0.052108
  30 H :    0.052108
  31 H :    0.052108
  32 H :    0.041420
  33 H :    0.041420

  Mayer bond orders larger than 0.100000
B(  0-C ,  1-C ) :   1.6075 B(  0-C ,  3-N ) :   1.1743 B(  0-C ,  6-C ) :   1.0826
B(  1-C ,  4-N ) :   1.1743 B(  1-C ,  7-C ) :   1.0826 B(  2-C ,  3-N ) :   1.3461
B(  2-C ,  4-N ) :   1.3461 B(  2-C ,  5-H ) :   0.9718 B(  3-N , 18-C ) :   0.8371
B(  4-N , 19-C ) :   0.8371 B(  6-C ,  8-H ) :   0.9482 B(  6-C , 11-H ) :   0.9482
B(  6-C , 12-H ) :   0.9397 B(  7-C ,  9-H ) :   0.9482 B(  7-C , 10-H ) :   0.9482
B(  7-C , 13-H ) :   0.9397 B( 14-C , 18-C ) :   1.0658 B( 14-C , 20-H ) :   0.9674
B( 14-C , 24-H ) :   0.9626 B( 14-C , 28-H ) :   0.9683 B( 15-C , 19-C ) :   1.0658
B( 15-C , 21-H ) :   0.9674 B( 15-C , 25-H ) :   0.9626 B( 15-C , 29-H ) :   0.9683
B( 16-C , 19-C ) :   1.0658 B( 16-C , 22-H ) :   0.9674 B( 16-C , 26-H ) :   0.9626
B( 16-C , 30-H ) :   0.9683 B( 17-C , 18-C ) :   1.0658 B( 17-C , 23-H ) :   0.9674
B( 17-C , 27-H ) :   0.9626 B( 17-C , 31-H ) :   0.9683 B( 18-C , 32-H ) :   0.9348
B( 19-C , 33-H ) :   0.9348

Dispersion correction           -0.005609379
FINAL SINGLE POINT ENERGY      -540.632657587015

DIPOLE MOMENT
-------------
                                X             Y             Z
Electronic contribution:      0.00002      -0.00000      -2.78942
Nuclear contribution   :     -0.00002       0.00000       2.79963
                        -----------------------------------------
Total Dipole Moment    :      0.00000       0.00000       0.01021
                        -----------------------------------------
Magnitude (a.u.)       :      0.01021
Magnitude (Debye)      :      0.02596

Dispersion correction in the Hessian             ... Starting D4

VIBRATIONAL FREQUENCIES
-----------------------

Scaling factor for frequencies =  1.000000000  (already applied!)

   0:         0.00 cm**-1
   1:         0.00 cm**-1
   2:         0.00 cm**-1
   3:         0.00 cm**-1
   4:         0.00 cm**-1
   5:         0.00 cm**-1
   6:       -29.29 cm**-1 ***imaginary mode***
   7:        -3.80 cm**-1 ***imaginary mode***
   8:        87.35 cm**-1
   9:       111.52 cm**-1
  10:       143.82 cm**-1
  11:       211.15 cm**-1
  12:       216.90 cm**-1
  13:       227.74 cm**-1
  14:       229.54 cm**-1
  15:       276.88 cm**-1
  16:       277.78 cm**-1
  17:       284.18 cm**-1
  18:       290.79 cm**-1
  19:       291.78 cm**-1
  20:       302.99 cm**-1
  21:       320.62 cm**-1
  22:       323.74 cm**-1
  23:       392.86 cm**-1
  24:       422.45 cm**-1
  25:       473.79 cm**-1
  26:       492.54 cm**-1
  27:       551.97 cm**-1
  28:       615.67 cm**-1
  29:       623.56 cm**-1
  30:       684.53 cm**-1
  31:       713.80 cm**-1
  32:       754.40 cm**-1
  33:       804.13 cm**-1
  34:       864.83 cm**-1
  35:       917.94 cm**-1
  36:       930.22 cm**-1
  37:       947.65 cm**-1
  38:       947.96 cm**-1
  39:       970.21 cm**-1
  40:       971.17 cm**-1
  41:       978.33 cm**-1
  42:      1051.54 cm**-1
  43:      1068.16 cm**-1
  44:      1075.05 cm**-1
  45:      1105.17 cm**-1
  46:      1132.58 cm**-1
  47:      1164.66 cm**-1
  48:      1183.24 cm**-1
  49:      1184.86 cm**-1
  50:      1205.76 cm**-1
  51:      1224.70 cm**-1
  52:      1227.26 cm**-1
  53:      1253.10 cm**-1
  54:      1347.89 cm**-1
  55:      1357.57 cm**-1
  56:      1358.30 cm**-1
  57:      1389.40 cm**-1
  58:      1406.79 cm**-1
  59:      1413.17 cm**-1
  60:      1413.76 cm**-1
  61:      1417.64 cm**-1
  62:      1423.15 cm**-1
  63:      1429.69 cm**-1
  64:      1436.11 cm**-1
  65:      1458.04 cm**-1
  66:      1461.21 cm**-1
  67:      1461.78 cm**-1
  68:      1461.93 cm**-1
  69:      1464.39 cm**-1
  70:      1472.19 cm**-1
  71:      1472.71 cm**-1
  72:      1473.46 cm**-1
  73:      1482.40 cm**-1
  74:      1482.83 cm**-1
  75:      1488.58 cm**-1
  76:      1492.51 cm**-1
  77:      1519.32 cm**-1
  78:      1530.36 cm**-1
  79:      1655.59 cm**-1
  80:      1729.33 cm**-1
  81:      3071.75 cm**-1
  82:      3071.84 cm**-1
  83:      3073.26 cm**-1
  84:      3073.32 cm**-1
  85:      3078.97 cm**-1
  86:      3079.60 cm**-1
  87:      3155.77 cm**-1
  88:      3155.81 cm**-1
  89:      3172.22 cm**-1
  90:      3172.24 cm**-1
  91:      3174.39 cm**-1
  92:      3174.42 cm**-1
  93:      3180.45 cm**-1
  94:      3180.58 cm**-1
  95:      3191.24 cm**-1
  96:      3191.33 cm**-1
  97:      3193.88 cm**-1
  98:      3193.97 cm**-1
  99:      3206.38 cm**-1
 100:      3208.80 cm**-1
 101:      3289.95 cm**-1

IR SPECTRUM
-----------

 Mode   freq       eps      Int      T**2         TX        TY        TZ
       cm**-1   L/(mol*cm) km/mol    a.u.
----------------------------------------------------------------------------
  8:     87.35   0.000062    0.31  0.000222  ( 0.014895 -0.000000 -0.000000)
  9:    111.52   0.000000    0.00  0.000000  (-0.000000  0.000000  0.000000)
 10:    143.82   0.000001    0.00  0.000002  (-0.000000  0.000000  0.001455)
 11:    211.15   0.000000    0.00  0.000000  ( 0.000001 -0.000000 -0.000000)
 12:    216.90   0.000089    0.45  0.000128  (-0.011319 -0.000000 -0.000000)
 13:    227.74   0.000000    0.00  0.000000  ( 0.000002 -0.000000  0.000000)
 14:    229.54   0.000018    0.09  0.000024  (-0.000001  0.004906 -0.000000)
 15:    276.88   0.000021    0.11  0.000024  (-0.004919 -0.000000 -0.000000)
 16:    277.78   0.000000    0.00  0.000000  ( 0.000006 -0.000000 -0.000000)
 17:    284.18   0.000015    0.07  0.000016  (-0.000002 -0.000000 -0.004019)
 18:    290.79   0.000014    0.07  0.000015  ( 0.000005 -0.003863  0.000000)
 19:    291.78   0.001385    7.00  0.001481  (-0.038485 -0.000001  0.000000)
 20:    302.99   0.000021    0.10  0.000021  ( 0.000000  0.000001  0.004623)
 21:    320.62   0.000076    0.38  0.000074  (-0.000000 -0.008593  0.000000)
 22:    323.74   0.000020    0.10  0.000019  (-0.000001 -0.000000 -0.004411)
 23:    392.86   0.000290    1.46  0.000230  (-0.015175  0.000000 -0.000000)
 24:    422.45   0.000053    0.27  0.000039  (-0.000000  0.006284  0.000000)
 25:    473.79   0.000125    0.63  0.000082  (-0.000000 -0.000000 -0.009071)
 26:    492.54   0.000000    0.00  0.000000  ( 0.000000 -0.000000  0.000000)
 27:    551.97   0.001275    6.44  0.000721  ( 0.000000 -0.026843 -0.000000)
 28:    615.67   0.000688    3.48  0.000349  (-0.000000  0.000000  0.018680)
 29:    623.56   0.000322    1.63  0.000161  ( 0.000000 -0.012690  0.000000)
 30:    684.53   0.003739   18.89  0.001704  (-0.041285  0.000000  0.000000)
 31:    713.80   0.000000    0.00  0.000000  (-0.000000  0.000000 -0.000000)
 32:    754.40   0.000896    4.53  0.000371  (-0.000000  0.000000 -0.019248)
 33:    804.13   0.000325    1.64  0.000126  ( 0.000000  0.011238  0.000000)
 34:    864.83   0.000884    4.47  0.000319  (-0.017862 -0.000000  0.000000)
 35:    917.94   0.000000    0.00  0.000000  (-0.000000  0.000000  0.000170)
 36:    930.22   0.000145    0.73  0.000049  ( 0.000000 -0.006978 -0.000000)
 37:    947.65   0.000000    0.00  0.000000  (-0.000005  0.000000  0.000000)
 38:    947.96   0.000312    1.57  0.000103  (-0.010129 -0.000000 -0.000000)
 39:    970.21   0.000000    0.00  0.000000  (-0.000004 -0.000000  0.000000)
 40:    971.17   0.000390    1.97  0.000125  (-0.011194 -0.000000  0.000000)
 41:    978.33   0.000017    0.09  0.000006  ( 0.000000 -0.000000  0.002354)
 42:   1051.54   0.000375    1.90  0.000111  (-0.010552  0.000000  0.000000)
 43:   1068.16   0.000030    0.15  0.000009  ( 0.000000  0.002974  0.000000)
 44:   1075.05   0.000000    0.00  0.000000  ( 0.000000 -0.000000 -0.000000)
 45:   1105.17   0.000532    2.69  0.000150  ( 0.000000 -0.000000  0.012251)
 46:   1132.58   0.001788    9.03  0.000493  ( 0.000000  0.022195  0.000000)
 47:   1164.66   0.000135    0.68  0.000036  (-0.000000 -0.000001  0.006020)
 48:   1183.24   0.000000    0.00  0.000000  ( 0.000007 -0.000000 -0.000000)
 49:   1184.86   0.001508    7.62  0.000397  ( 0.019927  0.000000 -0.000000)
 50:   1205.76   0.000334    1.69  0.000087  (-0.000000  0.009303  0.000000)
 51:   1224.70   0.000588    2.97  0.000150  ( 0.000000 -0.000008 -0.012242)
 52:   1227.26   0.031138  157.36  0.007918  (-0.000000  0.088981 -0.000001)
 53:   1253.10   0.000003    0.02  0.000001  (-0.000000  0.000922  0.000000)
 54:   1347.89   0.000034    0.17  0.000008  (-0.000000 -0.000000 -0.002821)
 55:   1357.57   0.000000    0.00  0.000000  (-0.000000  0.000000 -0.000000)
 56:   1358.30   0.000001    0.00  0.000000  ( 0.000473  0.000000 -0.000000)
 57:   1389.40   0.000991    5.01  0.000223  (-0.000000  0.014918  0.000000)
 58:   1406.79   0.000437    2.21  0.000097  (-0.000001  0.000001  0.009841)
 59:   1413.17   0.000000    0.00  0.000000  (-0.000037 -0.000000 -0.000000)
 60:   1413.76   0.006884   34.79  0.001520  (-0.038981 -0.000001 -0.000000)
 61:   1417.64   0.001307    6.60  0.000288  ( 0.000001 -0.016962 -0.000001)
 62:   1423.15   0.001989   10.05  0.000436  ( 0.000000  0.000003 -0.020886)
 63:   1429.69   0.003909   19.76  0.000853  ( 0.000000  0.029211  0.000000)
 64:   1436.11   0.011242   56.81  0.002443  (-0.000000 -0.000000 -0.049425)
 65:   1458.04   0.000000    0.00  0.000000  (-0.000001 -0.000002 -0.000000)
 66:   1461.21   0.002884   14.58  0.000616  ( 0.024818 -0.000008  0.000000)
 67:   1461.78   0.000000    0.00  0.000000  ( 0.000011 -0.000023 -0.000000)
 68:   1461.93   0.002703   13.66  0.000577  (-0.000005 -0.024019  0.000000)
 69:   1464.39   0.004166   21.05  0.000888  (-0.029797 -0.000002  0.000000)
 70:   1472.19   0.000000    0.00  0.000000  ( 0.000002 -0.000000 -0.000001)
 71:   1472.71   0.000733    3.70  0.000155  ( 0.012459 -0.000000 -0.000001)
 72:   1473.46   0.001560    7.88  0.000330  ( 0.000001 -0.000000 -0.018176)
 73:   1482.40   0.002883   14.57  0.000607  (-0.000000 -0.024637 -0.000005)
 74:   1482.83   0.006952   35.13  0.001463  (-0.000000  0.000003 -0.038251)
 75:   1488.58   0.001115    5.63  0.000234  ( 0.000000 -0.015288 -0.000000)
 76:   1492.51   0.000303    1.53  0.000063  (-0.000000 -0.000001  0.007959)
 77:   1519.32   0.000114    0.57  0.000023  ( 0.000000  0.004832  0.000000)
 78:   1530.36   0.000454    2.29  0.000093  ( 0.000000  0.000001 -0.009622)
 79:   1655.59   0.021121  106.74  0.003981  ( 0.000000 -0.063096 -0.000000)
 80:   1729.33   0.003732   18.86  0.000673  ( 0.000000 -0.000000  0.025950)
 81:   3071.75   0.000000    0.00  0.000000  ( 0.000174  0.000002  0.000009)
 82:   3071.84   0.001830    9.25  0.000186  ( 0.013635 -0.000004 -0.000005)
 83:   3073.26   0.000183    0.92  0.000019  ( 0.000013  0.004303 -0.000209)
 84:   3073.32   0.001100    5.56  0.000112  (-0.000006 -0.000085 -0.010566)
 85:   3078.97   0.000973    4.92  0.000099  ( 0.000000  0.009929  0.000005)
 86:   3079.60   0.000240    1.21  0.000024  (-0.000000  0.000008 -0.004935)
 87:   3155.77   0.000028    0.14  0.000003  ( 0.000001 -0.001667  0.000009)
 88:   3155.81   0.000001    0.00  0.000000  (-0.000000 -0.000079 -0.000220)
 89:   3172.22   0.000281    1.42  0.000028  ( 0.005258  0.000000  0.000000)
 90:   3172.24   0.000000    0.00  0.000000  (-0.000028 -0.000000 -0.000001)
 91:   3174.39   0.000757    3.83  0.000074  (-0.008628 -0.000003 -0.000001)
 92:   3174.42   0.000002    0.01  0.000000  ( 0.000431  0.000002  0.000005)
 93:   3180.45   0.001600    8.08  0.000157  ( 0.000002 -0.012527  0.000142)
 94:   3180.58   0.003405   17.21  0.000334  (-0.000001  0.000098  0.018277)
 95:   3191.24   0.000000    0.00  0.000000  (-0.000059  0.000000 -0.000002)
 96:   3191.33   0.000805    4.07  0.000079  (-0.008874 -0.000001 -0.000001)
 97:   3193.88   0.001285    6.50  0.000126  (-0.000001  0.011206  0.000014)
 98:   3193.97   0.000114    0.57  0.000011  ( 0.000000 -0.000051  0.003332)
 99:   3206.38   0.000142    0.72  0.000014  ( 0.000000  0.003717 -0.000006)
100:   3208.80   0.000232    1.17  0.000023  (-0.000000  0.000005  0.004752)
101:   3289.95   0.003882   19.62  0.000368  (-0.000000 -0.000000 -0.019189)

--------------------------
THERMOCHEMISTRY AT 298.15K
--------------------------

Temperature         ... 298.15 K
Pressure            ... 1.00 atm
Total Mass          ... 181.30 AMU

Throughout the following assumptions are being made:
  (1) The electronic state is orbitally nondegenerate
  (2) There are no thermally accessible electronically excited states
  (3) Hindered rotations indicated by low frequency modes are not
      treated as such but are treated as vibrations and this may
      cause some error
  (4) All equations used are the standard statistical mechanics
      equations for an ideal gas
  (5) All vibrations are strictly harmonic

freq.      87.35  E(vib)   ...       0.48
freq.     111.52  E(vib)   ...       0.45
freq.     143.82  E(vib)   ...       0.41
freq.     211.15  E(vib)   ...       0.34
freq.     216.90  E(vib)   ...       0.34
freq.     227.74  E(vib)   ...       0.33
freq.     229.54  E(vib)   ...       0.32
freq.     276.88  E(vib)   ...       0.28
freq.     277.78  E(vib)   ...       0.28
freq.     284.18  E(vib)   ...       0.28
freq.     290.79  E(vib)   ...       0.27
freq.     291.78  E(vib)   ...       0.27
freq.     302.99  E(vib)   ...       0.26
freq.     320.62  E(vib)   ...       0.25
freq.     323.74  E(vib)   ...       0.25
freq.     392.86  E(vib)   ...       0.20
freq.     422.45  E(vib)   ...       0.18
freq.     473.79  E(vib)   ...       0.15
freq.     492.54  E(vib)   ...       0.14
freq.     551.97  E(vib)   ...       0.12
freq.     615.67  E(vib)   ...       0.10
freq.     623.56  E(vib)   ...       0.09
freq.     684.53  E(vib)   ...       0.07
freq.     713.80  E(vib)   ...       0.07
freq.     754.40  E(vib)   ...       0.06
freq.     804.13  E(vib)   ...       0.05
freq.     864.83  E(vib)   ...       0.04
freq.     917.94  E(vib)   ...       0.03
freq.     930.22  E(vib)   ...       0.03
freq.     947.65  E(vib)   ...       0.03
freq.     947.96  E(vib)   ...       0.03
freq.     970.21  E(vib)   ...       0.03
freq.     971.17  E(vib)   ...       0.03
freq.     978.33  E(vib)   ...       0.03
freq.    1051.54  E(vib)   ...       0.02
freq.    1068.16  E(vib)   ...       0.02
freq.    1075.05  E(vib)   ...       0.02
freq.    1105.17  E(vib)   ...       0.02
freq.    1132.58  E(vib)   ...       0.01
freq.    1164.66  E(vib)   ...       0.01
freq.    1183.24  E(vib)   ...       0.01
freq.    1184.86  E(vib)   ...       0.01
freq.    1205.76  E(vib)   ...       0.01
freq.    1224.70  E(vib)   ...       0.01
freq.    1227.26  E(vib)   ...       0.01
freq.    1253.10  E(vib)   ...       0.01
freq.    1347.89  E(vib)   ...       0.01
freq.    1357.57  E(vib)   ...       0.01
freq.    1358.30  E(vib)   ...       0.01
freq.    1389.40  E(vib)   ...       0.00
freq.    1406.79  E(vib)   ...       0.00
freq.    1413.17  E(vib)   ...       0.00
freq.    1413.76  E(vib)   ...       0.00
freq.    1417.64  E(vib)   ...       0.00
freq.    1423.15  E(vib)   ...       0.00
freq.    1429.69  E(vib)   ...       0.00
freq.    1436.11  E(vib)   ...       0.00
freq.    1458.04  E(vib)   ...       0.00
freq.    1461.21  E(vib)   ...       0.00
freq.    1461.78  E(vib)   ...       0.00
freq.    1461.93  E(vib)   ...       0.00
freq.    1464.39  E(vib)   ...       0.00
freq.    1472.19  E(vib)   ...       0.00
freq.    1472.71  E(vib)   ...       0.00
freq.    1473.46  E(vib)   ...       0.00
freq.    1482.40  E(vib)   ...       0.00
freq.    1482.83  E(vib)   ...       0.00
freq.    1488.58  E(vib)   ...       0.00
freq.    1492.51  E(vib)   ...       0.00
freq.    1519.32  E(vib)   ...       0.00
freq.    1530.36  E(vib)   ...       0.00
freq.    1655.59  E(vib)   ...       0.00
freq.    1729.33  E(vib)   ...       0.00
freq.    3071.75  E(vib)   ...       0.00
freq.    3071.84  E(vib)   ...       0.00
freq.    3073.26  E(vib)   ...       0.00
freq.    3073.32  E(vib)   ...       0.00
freq.    3078.97  E(vib)   ...       0.00
freq.    3079.60  E(vib)   ...       0.00
freq.    3155.77  E(vib)   ...       0.00
freq.    3155.81  E(vib)   ...       0.00
freq.    3172.22  E(vib)   ...       0.00
freq.    3172.24  E(vib)   ...       0.00
freq.    3174.39  E(vib)   ...       0.00
freq.    3174.42  E(vib)   ...       0.00
freq.    3180.45  E(vib)   ...       0.00
freq.    3180.58  E(vib)   ...       0.00
freq.    3191.24  E(vib)   ...       0.00
freq.    3191.33  E(vib)   ...       0.00
freq.    3193.88  E(vib)   ...       0.00
freq.    3193.97  E(vib)   ...       0.00
freq.    3206.38  E(vib)   ...       0.00
freq.    3208.80  E(vib)   ...       0.00
freq.    3289.95  E(vib)   ...       0.00

------------
INNER ENERGY
------------

The inner energy is: U= E(el) + E(ZPE) + E(vib) + E(rot) + E(trans)
    E(el)   - is the total energy from the electronic structure calculation
              = E(kin-el) + E(nuc-el) + E(el-el) + E(nuc-nuc)
    E(ZPE)  - the the zero temperature vibrational energy from the frequency calculation
    E(vib)  - the the finite temperature correction to E(ZPE) due to population
              of excited vibrational states
    E(rot)  - is the rotational thermal energy
    E(trans)- is the translational thermal energy

Summary of contributions to the inner energy U:
Electronic energy                ...   -540.63265759 Eh
Zero point energy                ...      0.31284056 Eh     196.31 kcal/mol
Thermal vibrational correction   ...      0.01038735 Eh       6.52 kcal/mol
Thermal rotational correction    ...      0.00141627 Eh       0.89 kcal/mol
Thermal translational correction ...      0.00141627 Eh       0.89 kcal/mol
-----------------------------------------------------------------------
Total thermal energy                   -540.30659713 Eh

Summary of corrections to the electronic energy:
(perhaps to be used in another calculation)
Total thermal correction                  0.01321989 Eh       8.30 kcal/mol
Non-thermal (ZPE) correction              0.31284056 Eh     196.31 kcal/mol
-----------------------------------------------------------------------
Total correction                          0.32606046 Eh     204.61 kcal/mol

--------
ENTHALPY
--------

The enthalpy is H = U + kB*T
                kB is Boltzmann's constant
Total free energy                 ...   -540.30659713 Eh
Thermal Enthalpy correction       ...      0.00094421 Eh       0.59 kcal/mol
-----------------------------------------------------------------------
Total Enthalpy                    ...   -540.30565292 Eh

Note: Rotational entropy computed according to Herzberg
Infrared and Raman Spectra, Chapter V,1, Van Nostrand Reinhold, 1945
Point Group:  C2v, Symmetry Number:   2
Rotational constants in cm-1:     0.035301     0.019158     0.014917

Vibrational entropy computed according to the QRRHO of S. Grimme

                             ****ORCA TERMINATED NORMALLY****
TOTAL RUN TIME: 0 days 0 hours 53 minutes 19 seconds 5 msec
