                         Program Version 5.0.4 -  RELEASE  -
|  1> ! SP wB97X D4 def2-SVP def2/J defgrid2
|  2> %maxcore 3000
|  3> %PAL NPROCS 4 END
|  4> * xyz 0 1
|  5> C 0.0 0.6811 -1.2849
|  6> C 0.0 -0.6811 -1.2849
|  7> C 0.0 0.0 0.9004
|  8> N 0.0 1.0617 0.0583
|  9> N 0.0 -1.0617 0.0583
| 10> C 0.0 1.6456 -2.4248
| 11> C -0.0 -1.6456 -2.4248
| 12> H -0.8896 2.2958 -2.4117
| 13> H -0.8896 -2.2958 -2.4117
| 14> H 0.8896 -2.2958 -2.4117
| 15> H 0.8896 2.2958 -2.4117
| 16> H -0.0 1.0987 -3.3776
| 17> H -0.0 -1.0987 -3.3776
| 18> C -1.2676 2.7635 1.3129
| 19> C -1.2676 -2.7635 1.3129
| 20> C 1.2676 -2.7635 1.3129
| 21> C 1.2676 2.7635 1.3129
| 22> C 0.0 2.4539 0.5253
| 23> C 0.0 -2.4539 0.5253
| 24> H -2.1645 2.5573 0.7086
| 25> H -2.1645 -2.5573 0.7086
| 26> H 2.1645 -2.5573 0.7086
| 27> H 2.1645 2.5573 0.7086
| 28> H -1.3146 2.1468 2.2236
| 29> H -1.3146 -2.1468 2.2236
| 30> H 1.3146 -2.1468 2.2236
| 31> H 1.3146 2.1468 2.2236
| 32> H -1.2841 3.8241 1.607
| 33> H -1.2841 -3.8241 1.607
| 34> H 1.2841 -3.8241 1.607
| 35> H 1.2841 3.8241 1.607
| 36> H -0.0 3.0776 -0.3809
| 37> H 0.0 -3.0776 -0.3809
| 38> **                         ****END OF INPUT****

CARTESIAN COORDINATES (ANGSTROEM)
---------------------------------
  C      0.000000    0.681100   -1.284900
  C      0.000000   -0.681100   -1.284900
  C      0.000000    0.000000    0.900400
  N      0.000000    1.061700    0.058300
  N      0.000000   -1.061700    0.058300
  C      0.000000    1.645600   -2.424800
  C     -0.000000   -1.645600   -2.424800
  H     -0.889600    2.295800   -2.411700
  H     -0.889600   -2.295800   -2.411700
  H      0.889600   -2.295800   -2.411700
  H      0.889600    2.295800   -2.411700
  H     -0.000000    1.098700   -3.377600
  H     -0.000000   -1.098700   -3.377600
  C     -1.267600    2.763500    1.312900
  C     -1.267600   -2.763500    1.312900
  C      1.267600   -2.763500    1.312900
  C      1.267600    2.763500    1.312900
  C      0.000000    2.453900    0.525300
  C      0.000000   -2.453900    0.525300
  H     -2.164500    2.557300    0.708600
  H     -2.164500   -2.557300    0.708600
  H      2.164500   -2.557300    0.708600
  H      2.164500    2.557300    0.708600
  H     -1.314600    2.146800    2.223600
  H     -1.314600   -2.146800    2.223600
  H      1.314600   -2.146800    2.223600
  H      1.314600    2.146800    2.223600
  H     -1.284100    3.824100    1.607000
  H     -1.284100   -3.824100    1.607000
  H      1.284100   -3.824100    1.607000
  H      1.284100    3.824100    1.607000
  H     -0.000000    3.077600   -0.380900
  H      0.000000   -3.077600   -0.380900

 Total Charge           Charge          ....    0
 Multiplicity           Mult            ....    1
 Number of Electrons    NEL             ....  100
 Basis Dimension        Dim             ....  282

ORBITAL ENERGIES
----------------

  NO   OCC          E(Eh)            E(eV)
   0   2.0000     -14.430449      -392.6725
   1   2.0000     -14.430449      -392.6725
   2   2.0000     -10.305009      -280.4135
   3   2.0000     -10.304977      -280.4127
   4   2.0000     -10.287989      -279.9504
   5   2.0000     -10.287481      -279.9366
   6   2.0000     -10.281993      -279.7873
   7   2.0000     -10.281935      -279.7857
   8   2.0000     -10.256264      -279.0871
   9   2.0000     -10.256260      -279.0870
  10   2.0000     -10.256260      -279.0870
  11   2.0000     -10.256250      -279.0867
  12   2.0000     -10.255079      -279.0549
  13   2.0000      -1.132553       -30.8183
  14   2.0000      -1.029509       -28.0144
  15   2.0000      -0.932535       -25.3756
  16   2.0000      -0.899730       -24.4829
  17   2.0000      -0.884891       -24.0791
  18   2.0000      -0.842888       -22.9362
  19   2.0000      -0.801574       -21.8119
  20   2.0000      -0.801056       -21.7978
  21   2.0000      -0.784528       -21.3481
  22   2.0000      -0.761284       -20.7156
  23   2.0000      -0.693170       -18.8621
  24   2.0000      -0.676892       -18.4192
  25   2.0000      -0.642394       -17.4804
  26   2.0000      -0.616985       -16.7890
  27   2.0000      -0.578220       -15.7342
  28   2.0000      -0.555264       -15.1095
  29   2.0000      -0.553265       -15.0551
  30   2.0000      -0.548316       -14.9204
  31   2.0000      -0.537825       -14.6350
  32   2.0000      -0.535844       -14.5811
  33   2.0000      -0.522875       -14.2281
  34   2.0000      -0.514340       -13.9959
  35   2.0000      -0.511376       -13.9153
  36   2.0000      -0.508523       -13.8376
  37   2.0000      -0.492195       -13.3933
  38   2.0000      -0.487969       -13.2783
  39   2.0000      -0.482661       -13.1339
  40   2.0000      -0.470352       -12.7989
  41   2.0000      -0.464333       -12.6352
  42   2.0000      -0.459331       -12.4990
  43   2.0000      -0.450343       -12.2545
  44   2.0000      -0.437885       -11.9155
  45   2.0000      -0.436704       -11.8833
  46   2.0000      -0.428081       -11.6487
  47   2.0000      -0.355241        -9.6666
  48   2.0000      -0.296283        -8.0623
  49   2.0000      -0.294354        -8.0098
  50   0.0000       0.129416         3.5216
  51   0.0000       0.136919         3.7258
  52   0.0000       0.141960         3.8629
  53   0.0000       0.144647         3.9360
  54   0.0000       0.165768         4.5108

MULLIKEN ATOMIC CHARGES
-----------------------
   0 C :   -0.107954
   1 C :   -0.107953
   2 C :   -0.121427
   3 N :   -0.227932
   4 N :   -0.227930
   5 C :    0.080188
   6 C :    0.080184
   7 H :    0.044078
   8 H :    0.044079
   9 H :    0.044078
  10 H :    0.044078
  11 H :    0.018025
  12 H :    0.018024
  13 C :    0.009712
  14 C :    0.009713
  15 C :    0.009713
  16 C :    0.009713
  17 C :    0.001136
  18 C :    0.001136
  19 H :    0.023471
  20 H :    0.023471
  21 H :    0.023471
  22 H :    0.023471
  23 H :    0.047279
  24 H :    0.047279
  25 H :    0.047279
  26 H :    0.047278
  27 H :    0.020907
  28 H :    0.020907
  29 H :    0.020907
  30 H :    0.020907
  31 H :    0.006356
  32 H :    0.006356
Sum of atomic charges:   -0.0000000

LOEWDIN ATOMIC CHARGES
----------------------
   0 C :   -0.049666
   1 C :   -0.049666
   2 C :   -0.251842
   3 N :    0.025753
   4 N :    0.025753
   5 C :   -0.059482
   6 C :   -0.059482
   7 H :    0.035160
   8 H :    0.035160
   9 H :    0.035160
  10 H :    0.035160
  11 H :    0.035840
  12 H :    0.035840
  13 C :   -0.056983
  14 C :   -0.056983
  15 C :   -0.056983
  16 C :   -0.056983
  17 C :    0.030256
  18 C :    0.030256
  19 H :    0.025339
  20 H :    0.025339
  21 H :    0.025339
  22 H :    0.025339
  23 H :    0.033596
  24 H :    0.033596
  25 H :    0.033596
  26 H :    0.033596
  27 H :    0.024658
  28 H :    0.024658
  29 H :    0.024658
  30 H :    0.024658
  31 H :    0.019679
  32 H :    0.019679

  Mayer bond orders larger than 0.100000
B(  0-C ,  1-C ) :   1.6603 B(  0-C ,  3-N ) :   1.1221 B(  0-C ,  5-C ) :   1.0905
B(  1-C ,  4-N ) :   1.1221 B(  1-C ,  6-C ) :   1.0905 B(  2-C ,  3-N ) :   1.2348
B(  2-C ,  4-N ) :   1.2348 B(  3-N , 17-C ) :   0.9104 B(  4-N , 18-C ) :   0.9104
B(  5-C ,  7-H ) :   0.9499 B(  5-C , 10-H ) :   0.9499 B(  5-C , 11-H ) :   0.9448
B(  6-C ,  8-H ) :   0.9499 B(  6-C ,  9-H ) :   0.9499 B(  6-C , 12-H ) :   0.9448
B( 13-C , 17-C ) :   1.0736 B( 13-C , 19-H ) :   0.9671 B( 13-C , 23-H ) :   0.9640
B( 13-C , 27-H ) :   0.9703 B( 14-C , 18-C ) :   1.0736 B( 14-C , 20-H ) :   0.9671
B( 14-C , 24-H ) :   0.9640 B( 14-C , 28-H ) :   0.9703 B( 15-C , 18-C ) :   1.0736
B( 15-C , 21-H ) :   0.9671 B( 15-C , 25-H ) :   0.9640 B( 15-C , 29-H ) :   0.9703
B( 16-C , 17-C ) :   1.0736 B( 16-C , 22-H ) :   0.9671 B( 16-C , 26-H ) :   0.9640
B( 16-C , 30-H ) :   0.9703 B( 17-C , 31-H ) :   0.9398 B( 18-C , 32-H ) :   0.9398

Dispersion correction           -0.005728665
FINAL SINGLE POINT ENERGY      -540.185686676252

DIPOLE MOMENT
-------------
                                X             Y             Z
Electronic contribution:     -0.00000      -0.00000      -2.00105
Nuclear contribution   :      0.00000       0.00000       0.92911
                        -----------------------------------------
Total Dipole Moment    :     -0.00000      -0.00000      -1.07194
                        -----------------------------------------
Magnitude (a.u.)       :      1.07194
Magnitude (Debye)      :      2.72466

Rotational constants in cm-1:     0.035701     0.019180     0.014980
Rotational constants in MHz :  1070.296874   574.999371   449.099251

                             ****ORCA TERMINATED NORMALLY****
TOTAL RUN TIME: 0 days 0 hours 1 minutes 51 seconds 356 msec
