                         Program Version 5.0.4 -  RELEASE  -
|  1> # ORCA 5.0.4 - 7+.inp # write input file
|  2> # Basic Mode
|  3> #
|  4> ! Freq wB97X Def2-SVP D4 SlowConv TightSCF DEFGRID2 Def2/J RIJCOSX
|  5>
|  6>
|  7>
|  8> %maxcore 4500
|  9>
| 10> %geom
| 11> Maxiter 150
| 12> END
| 13>
| 14> * xyzfile 1 1 7+.xyz
| 15>
| 16>                          ****END OF INPUT****

CARTESIAN COORDINATES (ANGSTROEM)
---------------------------------
  C      0.005705    0.679070   -1.865586
  C     -0.005711   -0.679070   -1.865586
  H      0.003694    1.394770   -2.685202
  H     -0.003702   -1.394770   -2.685202
  C      0.006825    2.439614   -0.073877
  C     -0.894250    2.818275    0.919046
  C      0.910267    3.346084   -0.625498
  C     -0.878546    4.134505    1.376255
  H     -1.608558    2.094479    1.320717
  C      0.906085    4.661921   -0.167953
  H      1.615970    3.022105   -1.395195
  C      0.017005    5.055680    0.833055
  H     -1.580889    4.441888    2.155199
  H      1.611615    5.381529   -0.591242
  H      0.021030    6.088413    1.191721
  C     -0.006827   -2.439614   -0.073876
  C      0.894247   -2.818273    0.919049
  C     -0.910265   -3.346086   -0.625499
  C      0.878547   -4.134503    1.376257
  H      1.608553   -2.094476    1.320721
  C     -0.906081   -4.661923   -0.167955
  H     -1.615968   -3.022108   -1.395197
  C     -0.017001   -5.055680    0.833054
  H      1.580889   -4.441884    2.155203
  H     -1.611607   -5.381533   -0.591246
  H     -0.021023   -6.088414    1.191719
  C     -0.000000    0.000000    0.235440
  H      0.000001    0.000001    1.326143
  N      0.007357    1.081772   -0.542492
  N     -0.007361   -1.081771   -0.542492

 Total Charge           Charge          ....    1
 Multiplicity           Mult            ....    1
 Number of Electrons    NEL             ....  116
 Basis Dimension        Dim             ....  303

ORBITAL ENERGIES
----------------

  NO   OCC          E(Eh)            E(eV)
   0   2.0000     -14.663587      -399.0165
   1   2.0000     -14.663578      -399.0162
   2   2.0000     -10.534847      -286.6678
   3   2.0000     -10.482657      -285.2476
   4   2.0000     -10.482070      -285.2316
   5   2.0000     -10.466007      -284.7945
   6   2.0000     -10.465959      -284.7932
   7   2.0000     -10.419501      -283.5290
   8   2.0000     -10.419500      -283.5290
   9   2.0000     -10.418404      -283.4992
  10   2.0000     -10.418400      -283.4991
  11   2.0000     -10.407367      -283.1988
  12   2.0000     -10.407365      -283.1988
  13   2.0000     -10.407063      -283.1906
  14   2.0000     -10.407063      -283.1906
  15   2.0000     -10.403827      -283.1025
  16   2.0000     -10.403827      -283.1025
  17   2.0000      -1.366611       -37.1874
  18   2.0000      -1.248648       -33.9774
  19   2.0000      -1.135025       -30.8856
  20   2.0000      -1.114152       -30.3176
  21   2.0000      -1.077544       -29.3215
  22   2.0000      -1.040546       -28.3147
  23   2.0000      -1.010033       -27.4844
  24   2.0000      -1.006820       -27.3970
  25   2.0000      -1.000864       -27.2349
  26   2.0000      -0.931812       -25.3559
  27   2.0000      -0.929261       -25.2865
  28   2.0000      -0.879787       -23.9402
  29   2.0000      -0.866931       -23.5904
  30   2.0000      -0.858301       -23.3556
  31   2.0000      -0.854013       -23.2389
  32   2.0000      -0.817769       -22.2526
  33   2.0000      -0.788234       -21.4489
  34   2.0000      -0.770491       -20.9661
  35   2.0000      -0.750582       -20.4244
  36   2.0000      -0.738860       -20.1054
  37   2.0000      -0.736553       -20.0426
  38   2.0000      -0.721266       -19.6266
  39   2.0000      -0.717940       -19.5361
  40   2.0000      -0.710328       -19.3290
  41   2.0000      -0.690220       -18.7819
  42   2.0000      -0.675134       -18.3713
  43   2.0000      -0.675010       -18.3680
  44   2.0000      -0.666681       -18.1413
  45   2.0000      -0.665542       -18.1103
  46   2.0000      -0.643274       -17.5044
  47   2.0000      -0.622403       -16.9364
  48   2.0000      -0.597040       -16.2463
  49   2.0000      -0.594748       -16.1839
  50   2.0000      -0.592799       -16.1309
  51   2.0000      -0.582848       -15.8601
  52   2.0000      -0.574052       -15.6207
  53   2.0000      -0.526019       -14.3137
  54   2.0000      -0.485116       -13.2007
  55   2.0000      -0.483317       -13.1517
  56   2.0000      -0.483208       -13.1488
  57   2.0000      -0.474726       -12.9180
  58   0.0000      -0.107947        -2.9374
  59   0.0000      -0.073733        -2.0064
  60   0.0000      -0.062858        -1.7104
  61   0.0000      -0.062313        -1.6956
  62   0.0000      -0.043958        -1.1962

MULLIKEN ATOMIC CHARGES
-----------------------
   0 C :    0.084233
   1 C :    0.084232
   2 H :    0.105685
   3 H :    0.105685
   4 C :    0.101526
   5 C :   -0.026917
   6 C :   -0.019117
   7 C :   -0.005916
   8 H :    0.030411
   9 C :   -0.007258
  10 H :    0.034410
  11 C :    0.019291
  12 H :    0.057538
  13 H :    0.058619
  14 H :    0.060060
  15 C :    0.101527
  16 C :   -0.026919
  17 C :   -0.019119
  18 C :   -0.005914
  19 H :    0.030411
  20 C :   -0.007256
  21 H :    0.034410
  22 C :    0.019290
  23 H :    0.057538
  24 H :    0.058619
  25 H :    0.060060
  26 C :    0.222921
  27 H :    0.125422
  28 N :   -0.166736
  29 N :   -0.166735
Sum of atomic charges:    1.0000000

LOEWDIN ATOMIC CHARGES
----------------------
   0 C :    0.032781
   1 C :    0.032781
   2 H :    0.062192
   3 H :    0.062192
   4 C :   -0.002500
   5 C :   -0.028258
   6 C :   -0.023954
   7 C :    0.002642
   8 H :    0.041498
   9 C :    0.003578
  10 H :    0.043965
  11 C :    0.007044
  12 H :    0.050817
  13 H :    0.051181
  14 H :    0.051421
  15 C :   -0.002500
  16 C :   -0.028258
  17 C :   -0.023954
  18 C :    0.002641
  19 H :    0.041498
  20 C :    0.003578
  21 H :    0.043965
  22 C :    0.007044
  23 H :    0.050817
  24 H :    0.051181
  25 H :    0.051421
  26 C :    0.125148
  27 H :    0.063926
  28 N :    0.113058
  29 N :    0.113058

  Mayer bond orders larger than 0.100000
B(  0-C ,  1-C ) :   1.6121 B(  0-C ,  2-H ) :   0.9815 B(  0-C , 28-N ) :   1.1607
B(  1-C ,  3-H ) :   0.9815 B(  1-C , 29-N ) :   1.1607 B(  4-C ,  5-C ) :   1.3969
B(  4-C ,  6-C ) :   1.3971 B(  4-C , 28-N ) :   0.8525 B(  5-C ,  7-C ) :   1.3998
B(  5-C ,  8-H ) :   0.9917 B(  6-C ,  9-C ) :   1.4036 B(  6-C , 10-H ) :   0.9927
B(  7-C , 11-C ) :   1.4049 B(  7-C , 12-H ) :   0.9826 B(  9-C , 11-C ) :   1.4008
B(  9-C , 13-H ) :   0.9827 B( 11-C , 14-H ) :   0.9893 B( 15-C , 16-C ) :   1.3969
B( 15-C , 17-C ) :   1.3971 B( 15-C , 29-N ) :   0.8525 B( 16-C , 18-C ) :   1.3998
B( 16-C , 19-H ) :   0.9917 B( 17-C , 20-C ) :   1.4036 B( 17-C , 21-H ) :   0.9927
B( 18-C , 22-C ) :   1.4049 B( 18-C , 23-H ) :   0.9826 B( 20-C , 22-C ) :   1.4008
B( 20-C , 24-H ) :   0.9827 B( 22-C , 25-H ) :   0.9893 B( 26-C , 27-H ) :   0.9694
B( 26-C , 28-N ) :   1.3430 B( 26-C , 29-N ) :   1.3430

Dispersion correction           -0.005735308
FINAL SINGLE POINT ENERGY      -688.044354710821

DIPOLE MOMENT
-------------
                                X             Y             Z
Electronic contribution:     -0.00001      -0.00000      -1.66337
Nuclear contribution   :      0.00001      -0.00000       1.31571
                        -----------------------------------------
Total Dipole Moment    :      0.00000      -0.00000      -0.34766
                        -----------------------------------------
Magnitude (a.u.)       :      0.34766
Magnitude (Debye)      :      0.88367

Dispersion correction in the Hessian             ... Starting D4

VIBRATIONAL FREQUENCIES
-----------------------

Scaling factor for frequencies =  1.000000000  (already applied!)

   0:         0.00 cm**-1
   1:         0.00 cm**-1
   2:         0.00 cm**-1
   3:         0.00 cm**-1
   4:         0.00 cm**-1
   5:         0.00 cm**-1
   6:        35.10 cm**-1
   7:        46.20 cm**-1
   8:        67.54 cm**-1
   9:        96.14 cm**-1
  10:       129.10 cm**-1
  11:       146.44 cm**-1
  12:       252.68 cm**-1
  13:       307.78 cm**-1
  14:       314.41 cm**-1
  15:       409.81 cm**-1
  16:       425.65 cm**-1
  17:       425.76 cm**-1
  18:       430.50 cm**-1
  19:       447.16 cm**-1
  20:       534.18 cm**-1
  21:       567.91 cm**-1
  22:       626.41 cm**-1
  23:       626.63 cm**-1
  24:       678.76 cm**-1
  25:       683.21 cm**-1
  26:       694.71 cm**-1
  27:       721.82 cm**-1
  28:       723.21 cm**-1
  29:       723.50 cm**-1
  30:       777.99 cm**-1
  31:       800.86 cm**-1
  32:       801.99 cm**-1
  33:       871.46 cm**-1
  34:       871.90 cm**-1
  35:       892.64 cm**-1
  36:       919.29 cm**-1
  37:       969.51 cm**-1
  38:       970.32 cm**-1
  39:       980.44 cm**-1
  40:       988.83 cm**-1
  41:      1025.77 cm**-1
  42:      1026.84 cm**-1
  43:      1029.05 cm**-1
  44:      1029.64 cm**-1
  45:      1062.19 cm**-1
  46:      1063.18 cm**-1
  47:      1063.82 cm**-1
  48:      1063.91 cm**-1
  49:      1087.32 cm**-1
  50:      1109.07 cm**-1
  51:      1115.70 cm**-1
  52:      1116.70 cm**-1
  53:      1145.77 cm**-1
  54:      1178.99 cm**-1
  55:      1179.11 cm**-1
  56:      1195.31 cm**-1
  57:      1196.25 cm**-1
  58:      1255.17 cm**-1
  59:      1290.07 cm**-1
  60:      1327.61 cm**-1
  61:      1337.03 cm**-1
  62:      1359.41 cm**-1
  63:      1360.27 cm**-1
  64:      1404.47 cm**-1
  65:      1429.20 cm**-1
  66:      1470.95 cm**-1
  67:      1513.68 cm**-1
  68:      1517.07 cm**-1
  69:      1546.96 cm**-1
  70:      1562.33 cm**-1
  71:      1651.76 cm**-1
  72:      1652.80 cm**-1
  73:      1702.00 cm**-1
  74:      1703.64 cm**-1
  75:      1704.66 cm**-1
  76:      1705.69 cm**-1
  77:      3221.08 cm**-1
  78:      3221.12 cm**-1
  79:      3223.78 cm**-1
  80:      3223.82 cm**-1
  81:      3230.74 cm**-1
  82:      3230.75 cm**-1
  83:      3238.91 cm**-1
  84:      3238.92 cm**-1
  85:      3245.69 cm**-1
  86:      3245.69 cm**-1
  87:      3295.35 cm**-1
  88:      3304.06 cm**-1
  89:      3322.42 cm**-1

IR SPECTRUM
-----------

 Mode   freq       eps      Int      T**2         TX        TY        TZ
       cm**-1   L/(mol*cm) km/mol    a.u.
----------------------------------------------------------------------------
  6:     35.10   0.000005    0.03  0.000049  (-0.000001  0.000000  0.006985)
  7:     46.20   0.000015    0.07  0.000099  ( 0.009929 -0.000281  0.000000)
  8:     67.54   0.000020    0.10  0.000091  (-0.000000 -0.000000 -0.009551)
  9:     96.14   0.000080    0.40  0.000258  ( 0.012407 -0.010223  0.000000)
 10:    129.10   0.000079    0.40  0.000191  ( 0.000000 -0.000000  0.013807)
 11:    146.44   0.000105    0.53  0.000223  ( 0.014938 -0.000311  0.000000)
 12:    252.68   0.000044    0.22  0.000054  ( 0.000000 -0.000000  0.007350)
 13:    307.78   0.000195    0.98  0.000198  (-0.000000 -0.000000 -0.014054)
 14:    314.41   0.000027    0.14  0.000027  (-0.004945 -0.001663  0.000000)
 15:    409.81   0.000177    0.90  0.000135  (-0.005510  0.010234  0.000000)
 16:    425.65   0.000023    0.11  0.000017  (-0.000003  0.000003  0.004076)
 17:    425.76   0.000052    0.26  0.000038  (-0.004917  0.003742 -0.000003)
 18:    430.50   0.000006    0.03  0.000004  ( 0.000000  0.000000 -0.002056)
 19:    447.16   0.000389    1.97  0.000272  ( 0.013777  0.009039  0.000000)
 20:    534.18   0.002217   11.21  0.001295  ( 0.000000  0.000000 -0.035992)
 21:    567.91   0.001661    8.40  0.000913  (-0.026959  0.013640 -0.000000)
 22:    626.41   0.000160    0.81  0.000080  (-0.008584 -0.002488  0.000000)
 23:    626.63   0.000002    0.01  0.000001  ( 0.000001  0.000000  0.000892)
 24:    678.76   0.000686    3.47  0.000316  (-0.000000 -0.000000  0.017764)
 25:    683.21   0.002930   14.80  0.001338  (-0.036088 -0.005983 -0.000000)
 26:    694.71   0.000072    0.36  0.000032  ( 0.000000  0.000000 -0.005690)
 27:    721.82   0.001862    9.41  0.000805  ( 0.004929  0.027944 -0.000001)
 28:    723.21   0.005580   28.20  0.002408  ( 0.000052 -0.000014  0.049070)
 29:    723.50   0.007050   35.63  0.003041  ( 0.053067 -0.014986 -0.000048)
 30:    777.99   0.007049   35.62  0.002827  (-0.053115  0.002470  0.000000)
 31:    800.86   0.006011   30.38  0.002342  ( 0.000011 -0.000004  0.048396)
 32:    801.99   0.008461   42.76  0.003292  ( 0.053292 -0.021266 -0.000010)
 33:    871.46   0.000131    0.66  0.000047  ( 0.004192  0.005425  0.000001)
 34:    871.90   0.000034    0.17  0.000012  ( 0.000001  0.000002 -0.003469)
 35:    892.64   0.002382   12.04  0.000833  ( 0.028853 -0.000518  0.000000)
 36:    919.29   0.000000    0.00  0.000000  (-0.000000 -0.000000 -0.000402)
 37:    969.51   0.000238    1.20  0.000077  (-0.000003  0.000005 -0.008761)
 38:    970.32   0.000451    2.28  0.000145  (-0.006301  0.010271  0.000004)
 39:    980.44   0.000530    2.68  0.000169  (-0.002698 -0.012705  0.000000)
 40:    988.83   0.000001    0.00  0.000000  ( 0.000000 -0.000000  0.000404)
 41:   1025.77   0.002199   11.11  0.000669  ( 0.000517 -0.025859  0.000000)
 42:   1026.84   0.000133    0.67  0.000041  ( 0.000000 -0.000001 -0.006366)
 43:   1029.05   0.000062    0.31  0.000019  (-0.002392 -0.003605  0.000001)
 44:   1029.64   0.000083    0.42  0.000025  (-0.000001 -0.000000 -0.005001)
 45:   1062.19   0.000125    0.63  0.000037  ( 0.000000  0.000002 -0.006061)
 46:   1063.18   0.000127    0.64  0.000037  (-0.000288 -0.006110 -0.000001)
 47:   1063.82   0.000006    0.03  0.000002  (-0.000002 -0.000013 -0.001289)
 48:   1063.91   0.000105    0.53  0.000031  (-0.000906 -0.005468  0.000002)
 49:   1087.32   0.014022   70.86  0.004024  (-0.003770 -0.063325  0.000000)
 50:   1109.07   0.001340    6.77  0.000377  (-0.000000  0.000000 -0.019418)
 51:   1115.70   0.001738    8.78  0.000486  ( 0.022048 -0.000130 -0.000007)
 52:   1116.70   0.003256   16.45  0.000910  ( 0.000005  0.000000  0.030164)
 53:   1145.77   0.000481    2.43  0.000131  (-0.000000  0.000000  0.011450)
 54:   1178.99   0.000020    0.10  0.000005  (-0.000001 -0.000000 -0.002313)
 55:   1179.11   0.000040    0.20  0.000010  (-0.003216 -0.000335  0.000000)
 56:   1195.31   0.000024    0.12  0.000006  (-0.000741  0.002406  0.000000)
 57:   1196.25   0.000017    0.08  0.000004  ( 0.000000 -0.000000  0.002090)
 58:   1255.17   0.002731   13.80  0.000679  (-0.004170 -0.025720 -0.000000)
 59:   1290.07   0.005710   28.86  0.001381  ( 0.001386 -0.037139  0.000000)
 60:   1327.61   0.000110    0.55  0.000026  (-0.000000  0.000000 -0.005076)
 61:   1337.03   0.000084    0.43  0.000020  ( 0.002983 -0.003285  0.000000)
 62:   1359.41   0.000387    1.96  0.000089  (-0.000005 -0.000002  0.009429)
 63:   1360.27   0.001121    5.67  0.000257  (-0.014646 -0.006537 -0.000003)
 64:   1404.47   0.000951    4.81  0.000211  (-0.000000 -0.000000  0.014537)
 65:   1429.20   0.002061   10.41  0.000450  (-0.006945 -0.020043 -0.000000)
 66:   1470.95   0.000293    1.48  0.000062  ( 0.000000  0.000000  0.007884)
 67:   1513.68   0.001767    8.93  0.000364  (-0.018631 -0.004139  0.000002)
 68:   1517.07   0.001211    6.12  0.000249  ( 0.000002  0.000000  0.015784)
 69:   1546.96   0.008509   43.00  0.001717  (-0.000089 -0.041431  0.000001)
 70:   1562.33   0.002163   10.93  0.000432  (-0.000000 -0.000001 -0.020784)
 71:   1651.76   0.000412    2.08  0.000078  ( 0.000000 -0.000019  0.008827)
 72:   1652.80   0.045646  230.68  0.008618  ( 0.001150 -0.092828 -0.000002)
 73:   1702.00   0.001728    8.73  0.000317  ( 0.014384  0.010482  0.000000)
 74:   1703.64   0.002684   13.56  0.000492  (-0.000274  0.022171 -0.000001)
 75:   1704.66   0.000577    2.92  0.000106  ( 0.000001  0.000002 -0.010281)
 76:   1705.69   0.000678    3.43  0.000124  ( 0.000000  0.000003  0.011137)
 77:   3221.08   0.000778    3.93  0.000075  ( 0.000540  0.008663 -0.000002)
 78:   3221.12   0.000037    0.19  0.000004  ( 0.000000  0.000009  0.001906)
 79:   3223.78   0.000016    0.08  0.000002  (-0.001199 -0.000280 -0.000006)
 80:   3223.82   0.000008    0.04  0.000001  (-0.000008 -0.000003  0.000872)
 81:   3230.74   0.000262    1.33  0.000025  ( 0.000597  0.004990 -0.000287)
 82:   3230.75   0.000030    0.15  0.000003  ( 0.000149  0.001247  0.001146)
 83:   3238.91   0.000002    0.01  0.000000  (-0.000254  0.000294 -0.000004)
 84:   3238.92   0.000000    0.00  0.000000  ( 0.000014 -0.000017 -0.000061)
 85:   3245.69   0.000001    0.01  0.000000  ( 0.000044  0.000139 -0.000320)
 86:   3245.69   0.000013    0.07  0.000001  (-0.000336 -0.001062 -0.000042)
 87:   3295.35   0.006654   33.63  0.000630  ( 0.000000 -0.000000  0.025102)
 88:   3304.06   0.004335   21.90  0.000409  (-0.000520  0.020227 -0.000000)
 89:   3322.42   0.004002   20.22  0.000376  ( 0.000000  0.000000  0.019387)

--------------------------
THERMOCHEMISTRY AT 298.15K
--------------------------

Temperature         ... 298.15 K
Pressure            ... 1.00 atm
Total Mass          ... 221.28 AMU

Throughout the following assumptions are being made:
  (1) The electronic state is orbitally nondegenerate
  (2) There are no thermally accessible electronically excited states
  (3) Hindered rotations indicated by low frequency modes are not
      treated as such but are treated as vibrations and this may
      cause some error
  (4) All equations used are the standard statistical mechanics
      equations for an ideal gas
  (5) All vibrations are strictly harmonic

freq.      35.10  E(vib)   ...       0.54
freq.      46.20  E(vib)   ...       0.53
freq.      67.54  E(vib)   ...       0.50
freq.      96.14  E(vib)   ...       0.47
freq.     129.10  E(vib)   ...       0.43
freq.     146.44  E(vib)   ...       0.41
freq.     252.68  E(vib)   ...       0.30
freq.     307.78  E(vib)   ...       0.26
freq.     314.41  E(vib)   ...       0.25
freq.     409.81  E(vib)   ...       0.19
freq.     425.65  E(vib)   ...       0.18
freq.     425.76  E(vib)   ...       0.18
freq.     430.50  E(vib)   ...       0.18
freq.     447.16  E(vib)   ...       0.17
freq.     534.18  E(vib)   ...       0.13
freq.     567.91  E(vib)   ...       0.11
freq.     626.41  E(vib)   ...       0.09
freq.     626.63  E(vib)   ...       0.09
freq.     678.76  E(vib)   ...       0.08
freq.     683.21  E(vib)   ...       0.08
freq.     694.71  E(vib)   ...       0.07
freq.     721.82  E(vib)   ...       0.07
freq.     723.21  E(vib)   ...       0.07
freq.     723.50  E(vib)   ...       0.06
freq.     777.99  E(vib)   ...       0.05
freq.     800.86  E(vib)   ...       0.05
freq.     801.99  E(vib)   ...       0.05
freq.     871.46  E(vib)   ...       0.04
freq.     871.90  E(vib)   ...       0.04
freq.     892.64  E(vib)   ...       0.03
freq.     919.29  E(vib)   ...       0.03
freq.     969.51  E(vib)   ...       0.03
freq.     970.32  E(vib)   ...       0.03
freq.     980.44  E(vib)   ...       0.02
freq.     988.83  E(vib)   ...       0.02
freq.    1025.77  E(vib)   ...       0.02
freq.    1026.84  E(vib)   ...       0.02
freq.    1029.05  E(vib)   ...       0.02
freq.    1029.64  E(vib)   ...       0.02
freq.    1062.19  E(vib)   ...       0.02
freq.    1063.18  E(vib)   ...       0.02
freq.    1063.82  E(vib)   ...       0.02
freq.    1063.91  E(vib)   ...       0.02
freq.    1087.32  E(vib)   ...       0.02
freq.    1109.07  E(vib)   ...       0.02
freq.    1115.70  E(vib)   ...       0.01
freq.    1116.70  E(vib)   ...       0.01
freq.    1145.77  E(vib)   ...       0.01
freq.    1178.99  E(vib)   ...       0.01
freq.    1179.11  E(vib)   ...       0.01
freq.    1195.31  E(vib)   ...       0.01
freq.    1196.25  E(vib)   ...       0.01
freq.    1255.17  E(vib)   ...       0.01
freq.    1290.07  E(vib)   ...       0.01
freq.    1327.61  E(vib)   ...       0.01
freq.    1337.03  E(vib)   ...       0.01
freq.    1359.41  E(vib)   ...       0.01
freq.    1360.27  E(vib)   ...       0.01
freq.    1404.47  E(vib)   ...       0.00
freq.    1429.20  E(vib)   ...       0.00
freq.    1470.95  E(vib)   ...       0.00
freq.    1513.68  E(vib)   ...       0.00
freq.    1517.07  E(vib)   ...       0.00
freq.    1546.96  E(vib)   ...       0.00
freq.    1562.33  E(vib)   ...       0.00
freq.    1651.76  E(vib)   ...       0.00
freq.    1652.80  E(vib)   ...       0.00
freq.    1702.00  E(vib)   ...       0.00
freq.    1703.64  E(vib)   ...       0.00
freq.    1704.66  E(vib)   ...       0.00
freq.    1705.69  E(vib)   ...       0.00
freq.    3221.08  E(vib)   ...       0.00
freq.    3221.12  E(vib)   ...       0.00
freq.    3223.78  E(vib)   ...       0.00
freq.    3223.82  E(vib)   ...       0.00
freq.    3230.74  E(vib)   ...       0.00
freq.    3230.75  E(vib)   ...       0.00
freq.    3238.91  E(vib)   ...       0.00
freq.    3238.92  E(vib)   ...       0.00
freq.    3245.69  E(vib)   ...       0.00
freq.    3245.69  E(vib)   ...       0.00
freq.    3295.35  E(vib)   ...       0.00
freq.    3304.06  E(vib)   ...       0.00
freq.    3322.42  E(vib)   ...       0.00

------------
INNER ENERGY
------------

The inner energy is: U= E(el) + E(ZPE) + E(vib) + E(rot) + E(trans)
    E(el)   - is the total energy from the electronic structure calculation
              = E(kin-el) + E(nuc-el) + E(el-el) + E(nuc-nuc)
    E(ZPE)  - the the zero temperature vibrational energy from the frequency calculation
    E(vib)  - the the finite temperature correction to E(ZPE) due to population
              of excited vibrational states
    E(rot)  - is the rotational thermal energy
    E(trans)- is the translational thermal energy

Summary of contributions to the inner energy U:
Electronic energy                ...   -688.04435471 Eh
Zero point energy                ...      0.24919878 Eh     156.37 kcal/mol
Thermal vibrational correction   ...      0.00980723 Eh       6.15 kcal/mol
Thermal rotational correction    ...      0.00141627 Eh       0.89 kcal/mol
Thermal translational correction ...      0.00141627 Eh       0.89 kcal/mol
-----------------------------------------------------------------------
Total thermal energy                   -687.78251616 Eh

Summary of corrections to the electronic energy:
(perhaps to be used in another calculation)
Total thermal correction                  0.01263977 Eh       7.93 kcal/mol
Non-thermal (ZPE) correction              0.24919878 Eh     156.37 kcal/mol
-----------------------------------------------------------------------
Total correction                          0.26183855 Eh     164.31 kcal/mol

--------
ENTHALPY
--------

The enthalpy is H = U + kB*T
                kB is Boltzmann's constant
Total free energy                 ...   -687.78251616 Eh
Thermal Enthalpy correction       ...      0.00094421 Eh       0.59 kcal/mol
-----------------------------------------------------------------------
Total Enthalpy                    ...   -687.78157195 Eh

Note: Rotational entropy computed according to Herzberg
Infrared and Raman Spectra, Chapter V,1, Van Nostrand Reinhold, 1945
Point Group:  C2, Symmetry Number:   2
Rotational constants in cm-1:     0.052775     0.006755     0.006435

Vibrational entropy computed according to the QRRHO of S. Grimme
Chem.Eur.J. 2012 18 9955

-------
ENTROPY
-------

The entropy contributions are T*S = T*(S(el)+S(vib)+S(rot)+S(trans))
     S(el)   - electronic entropy
     S(vib)  - vibrational entropy

                             ****ORCA TERMINATED NORMALLY****
TOTAL RUN TIME: 0 days 0 hours 48 minutes 51 seconds 11 msec
