                         Program Version 5.0.4 -  RELEASE  -
|  1> # ORCA 5.0.4 - 7.inp # write input file
|  2> # Basic Mode
|  3> #
|  4> ! Freq wB97X Def2-SVP D4 SlowConv TightSCF DEFGRID2 Def2/J RIJCOSX
|  5>
|  6>
|  7>
|  8> %maxcore 4500
|  9>
| 10> %geom
| 11> Maxiter 150
| 12> END
| 13>
| 14> * xyzfile 0 1 7.xyz
| 15>
| 16>                          ****END OF INPUT****

CARTESIAN COORDINATES (ANGSTROEM)
---------------------------------
  C     -0.002310    0.674970   -1.836966
  C      0.002313   -0.674970   -1.836966
  H     -0.017629    1.379468   -2.665582
  H      0.017633   -1.379468   -2.665582
  C     -0.011104    2.420257   -0.058431
  C     -0.598092    2.750479    1.165891
  C      0.569761    3.416221   -0.846627
  C     -0.594812    4.073733    1.600022
  H     -1.051655    1.961340    1.768526
  C      0.557449    4.740451   -0.408736
  H      1.047004    3.162124   -1.796406
  C     -0.021045    5.074996    0.814695
  H     -1.055078    4.324778    2.559863
  H      1.015206    5.514694   -1.030674
  H     -0.025670    6.113714    1.156011
  C      0.011104   -2.420257   -0.058430
  C      0.598093   -2.750480    1.165891
  C     -0.569763   -3.416220   -0.846627
  C      0.594812   -4.073733    1.600021
  H      1.051657   -1.961341    1.768526
  C     -0.557452   -4.740451   -0.408735
  H     -1.047005   -3.162123   -1.796405
  C      0.021044   -5.074996    0.814695
  H      1.055079   -4.324779    2.559862
  H     -1.015209   -5.514694   -1.030673
  H      0.025669   -6.113714    1.156011
  C     -0.000000    0.000000    0.351299
  N     -0.006538    1.063095   -0.498798
  N      0.006540   -1.063095   -0.498798

 Total Charge           Charge          ....    0
 Multiplicity           Mult            ....    1
 Number of Electrons    NEL             ....  116
 Basis Dimension        Dim             ....  298

ORBITAL ENERGIES
----------------

  NO   OCC          E(Eh)            E(eV)
   0   2.0000     -14.464514      -393.5994
   1   2.0000     -14.464512      -393.5994
   2   2.0000     -10.321951      -280.8746
   3   2.0000     -10.321897      -280.8731
   4   2.0000     -10.309979      -280.5488
   5   2.0000     -10.309369      -280.5322
   6   2.0000     -10.283799      -279.8364
   7   2.0000     -10.283799      -279.8364
   8   2.0000     -10.283676      -279.8330
   9   2.0000     -10.282985      -279.8142
  10   2.0000     -10.282983      -279.8142
  11   2.0000     -10.280352      -279.7426
  12   2.0000     -10.280349      -279.7425
  13   2.0000     -10.277994      -279.6784
  14   2.0000     -10.277994      -279.6784
  15   2.0000     -10.275785      -279.6183
  16   2.0000     -10.275783      -279.6183
  17   2.0000      -1.162225       -31.6258
  18   2.0000      -1.061876       -28.8951
  19   2.0000      -0.992737       -27.0137
  20   2.0000      -0.974603       -26.5203
  21   2.0000      -0.908906       -24.7326
  22   2.0000      -0.881287       -23.9810
  23   2.0000      -0.875819       -23.8322
  24   2.0000      -0.863239       -23.4899
  25   2.0000      -0.857561       -23.3354
  26   2.0000      -0.778844       -21.1934
  27   2.0000      -0.759556       -20.6686
  28   2.0000      -0.729592       -19.8532
  29   2.0000      -0.722616       -19.6634
  30   2.0000      -0.694221       -18.8907
  31   2.0000      -0.684024       -18.6132
  32   2.0000      -0.663569       -18.0566
  33   2.0000      -0.638981       -17.3876
  34   2.0000      -0.608143       -16.5484
  35   2.0000      -0.591745       -16.1022
  36   2.0000      -0.583075       -15.8663
  37   2.0000      -0.575997       -15.6737
  38   2.0000      -0.566685       -15.4203
  39   2.0000      -0.563020       -15.3205
  40   2.0000      -0.546205       -14.8630
  41   2.0000      -0.537140       -14.6163
  42   2.0000      -0.534564       -14.5462
  43   2.0000      -0.531609       -14.4658
  44   2.0000      -0.529817       -14.4170
  45   2.0000      -0.505056       -13.7433
  46   2.0000      -0.485406       -13.2086
  47   2.0000      -0.469377       -12.7724
  48   2.0000      -0.464262       -12.6332
  49   2.0000      -0.455564       -12.3965
  50   2.0000      -0.449909       -12.2426
  51   2.0000      -0.431957       -11.7542
  52   2.0000      -0.367052        -9.9880
  53   2.0000      -0.354194        -9.6381
  54   2.0000      -0.353641        -9.6231
  55   2.0000      -0.324531        -8.8309
  56   2.0000      -0.322227        -8.7682
  57   2.0000      -0.316670        -8.6170
  58   0.0000       0.055099         1.4993
  59   0.0000       0.062204         1.6927
  60   0.0000       0.068078         1.8525
  61   0.0000       0.071629         1.9491
  62   0.0000       0.121971         3.3190

MULLIKEN ATOMIC CHARGES
-----------------------
   0 C :    0.047182
   1 C :    0.047183
   2 H :    0.043908
   3 H :    0.043908
   4 C :    0.166663
   5 C :   -0.016690
   6 C :   -0.061325
   7 C :   -0.012004
   8 H :    0.025702
   9 C :   -0.013124
  10 H :    0.002325
  11 C :   -0.003224
  12 H :    0.020279
  13 H :    0.016847
  14 H :    0.016095
  15 C :    0.166656
  16 C :   -0.016684
  17 C :   -0.061319
  18 C :   -0.012006
  19 H :    0.025702
  20 C :   -0.013127
  21 H :    0.002326
  22 C :   -0.003224
  23 H :    0.020280
  24 H :    0.016847
  25 H :    0.016095
  26 C :   -0.074696
  27 N :   -0.195289
  28 N :   -0.195288
Sum of atomic charges:   -0.0000000

LOEWDIN ATOMIC CHARGES
----------------------
   0 C :   -0.021504
   1 C :   -0.021504
   2 H :    0.032820
   3 H :    0.032820
   4 C :    0.033055
   5 C :   -0.019977
   6 C :   -0.047616
   7 C :   -0.019959
   8 H :    0.040645
   9 C :   -0.022756
  10 H :    0.030417
  11 C :   -0.036691
  12 H :    0.034161
  13 H :    0.032808
  14 H :    0.031669
  15 C :    0.033056
  16 C :   -0.019978
  17 C :   -0.047616
  18 C :   -0.019959
  19 H :    0.040645
  20 C :   -0.022756
  21 H :    0.030416
  22 C :   -0.036691
  23 H :    0.034161
  24 H :    0.032808
  25 H :    0.031669
  26 C :   -0.209855
  27 N :    0.037856
  28 N :    0.037856

  Mayer bond orders larger than 0.100000
B(  0-C ,  1-C ) :   1.6690 B(  0-C ,  2-H ) :   0.9818 B(  0-C , 27-N ) :   1.0932
B(  1-C ,  3-H ) :   0.9818 B(  1-C , 28-N ) :   1.0932 B(  4-C ,  5-C ) :   1.4140
B(  4-C ,  6-C ) :   1.3937 B(  4-C , 27-N ) :   0.9435 B(  5-C ,  7-C ) :   1.3911
B(  5-C ,  8-H ) :   0.9882 B(  6-C ,  9-C ) :   1.3936 B(  6-C , 10-H ) :   0.9906
B(  7-C , 11-C ) :   1.3873 B(  7-C , 12-H ) :   0.9868 B(  9-C , 11-C ) :   1.4079
B(  9-C , 13-H ) :   0.9854 B( 11-C , 14-H ) :   0.9913 B( 15-C , 16-C ) :   1.4140
B( 15-C , 17-C ) :   1.3937 B( 15-C , 28-N ) :   0.9435 B( 16-C , 18-C ) :   1.3911
B( 16-C , 19-H ) :   0.9882 B( 17-C , 20-C ) :   1.3936 B( 17-C , 21-H ) :   0.9906
B( 18-C , 22-C ) :   1.3873 B( 18-C , 23-H ) :   0.9868 B( 20-C , 22-C ) :   1.4079
B( 20-C , 24-H ) :   0.9854 B( 22-C , 25-H ) :   0.9913 B( 26-C , 27-N ) :   1.2044
B( 26-C , 28-N ) :   1.2044

Dispersion correction           -0.005806596
FINAL SINGLE POINT ENERGY      -687.611211335549

DIPOLE MOMENT
-------------
                                X             Y             Z
Electronic contribution:     -0.00000      -0.00000      -0.84688
Nuclear contribution   :      0.00000      -0.00000      -0.04940
                        -----------------------------------------
Total Dipole Moment    :      0.00000      -0.00000      -0.89628
                        -----------------------------------------
Magnitude (a.u.)       :      0.89628
Magnitude (Debye)      :      2.27817

Dispersion correction in the Hessian             ... Starting D4

VIBRATIONAL FREQUENCIES
-----------------------

Scaling factor for frequencies =  1.000000000  (already applied!)

   0:         0.00 cm**-1
   1:         0.00 cm**-1
   2:         0.00 cm**-1
   3:         0.00 cm**-1
   4:         0.00 cm**-1
   5:         0.00 cm**-1
   6:        40.42 cm**-1
   7:        40.88 cm**-1
   8:        77.62 cm**-1
   9:        90.05 cm**-1
  10:       137.73 cm**-1
  11:       181.49 cm**-1
  12:       260.58 cm**-1
  13:       293.80 cm**-1
  14:       314.33 cm**-1
  15:       420.99 cm**-1
  16:       427.47 cm**-1
  17:       432.08 cm**-1
  18:       432.79 cm**-1
  19:       492.38 cm**-1
  20:       540.54 cm**-1
  21:       570.15 cm**-1
  22:       630.15 cm**-1
  23:       632.12 cm**-1
  24:       656.32 cm**-1
  25:       662.23 cm**-1
  26:       693.82 cm**-1
  27:       724.44 cm**-1
  28:       724.81 cm**-1
  29:       728.74 cm**-1
  30:       744.67 cm**-1
  31:       801.73 cm**-1
  32:       802.36 cm**-1
  33:       869.37 cm**-1
  34:       869.40 cm**-1
  35:       878.20 cm**-1
  36:       958.38 cm**-1
  37:       958.82 cm**-1
  38:       970.41 cm**-1
  39:       975.28 cm**-1
  40:      1019.51 cm**-1
  41:      1019.52 cm**-1
  42:      1023.26 cm**-1
  43:      1024.05 cm**-1
  44:      1044.33 cm**-1
  45:      1044.35 cm**-1
  46:      1060.62 cm**-1
  47:      1062.65 cm**-1
  48:      1090.86 cm**-1
  49:      1097.25 cm**-1
  50:      1116.68 cm**-1
  51:      1117.52 cm**-1
  52:      1136.60 cm**-1
  53:      1166.36 cm**-1
  54:      1166.67 cm**-1
  55:      1189.08 cm**-1
  56:      1189.16 cm**-1
  57:      1292.51 cm**-1
  58:      1303.43 cm**-1
  59:      1306.28 cm**-1
  60:      1352.37 cm**-1
  61:      1353.40 cm**-1
  62:      1355.88 cm**-1
  63:      1388.11 cm**-1
  64:      1431.43 cm**-1
  65:      1467.66 cm**-1
  66:      1508.86 cm**-1
  67:      1513.49 cm**-1
  68:      1560.10 cm**-1
  69:      1567.64 cm**-1
  70:      1666.47 cm**-1
  71:      1695.31 cm**-1
  72:      1701.05 cm**-1
  73:      1710.52 cm**-1
  74:      1714.47 cm**-1
  75:      3210.31 cm**-1
  76:      3210.36 cm**-1
  77:      3219.09 cm**-1
  78:      3219.12 cm**-1
  79:      3228.45 cm**-1
  80:      3228.56 cm**-1
  81:      3235.91 cm**-1
  82:      3235.98 cm**-1
  83:      3251.26 cm**-1
  84:      3251.26 cm**-1
  85:      3294.20 cm**-1
  86:      3315.84 cm**-1

IR SPECTRUM
-----------

 Mode   freq       eps      Int      T**2         TX        TY        TZ
       cm**-1   L/(mol*cm) km/mol    a.u.
----------------------------------------------------------------------------
  6:     40.42   0.000110    0.55  0.000847  ( 0.001770 -0.029047  0.000000)
  7:     40.88   0.000000    0.00  0.000001  ( 0.000001 -0.000015 -0.000714)
  8:     77.62   0.000037    0.18  0.000147  ( 0.000000 -0.000000 -0.012127)
  9:     90.05   0.002209   11.16  0.007656  (-0.075265  0.044625 -0.000000)
 10:    137.73   0.000005    0.03  0.000011  (-0.000000 -0.000000 -0.003371)
 11:    181.49   0.000332    1.68  0.000571  (-0.010695 -0.021361  0.000000)
 12:    260.58   0.000025    0.12  0.000029  (-0.000000 -0.000000 -0.005425)
 13:    293.80   0.001145    5.79  0.001216  (-0.014311  0.031806  0.000000)
 14:    314.33   0.000028    0.14  0.000028  ( 0.000000 -0.000000 -0.005285)
 15:    420.99   0.000005    0.02  0.000003  ( 0.000768  0.001659  0.000000)
 16:    427.47   0.000003    0.01  0.000002  (-0.000000 -0.000000  0.001459)
 17:    432.08   0.000163    0.83  0.000118  ( 0.000710 -0.010843  0.000000)
 18:    432.79   0.000006    0.03  0.000004  ( 0.000000 -0.000000  0.002014)
 19:    492.38   0.001079    5.46  0.000684  (-0.011951  0.023266  0.000000)
 20:    540.54   0.000650    3.29  0.000375  (-0.000000 -0.000000  0.019377)
 21:    570.15   0.002806   14.18  0.001536  (-0.029563 -0.025723  0.000000)
 22:    630.15   0.000237    1.20  0.000117  (-0.001143  0.010769  0.000000)
 23:    632.12   0.000044    0.22  0.000022  (-0.000000  0.000000 -0.004652)
 24:    656.32   0.000589    2.97  0.000280  (-0.010256  0.013216 -0.000000)
 25:    662.23   0.000392    1.98  0.000185  (-0.000000 -0.000000  0.013592)
 26:    693.82   0.000387    1.95  0.000174  (-0.000000  0.000000 -0.013188)
 27:    724.44   0.002520   12.73  0.001085  (-0.000063  0.000016  0.032945)
 28:    724.81   0.009022   45.59  0.003884  ( 0.060100 -0.016498  0.000034)
 29:    728.74   0.009664   48.84  0.004139  (-0.029749 -0.057040 -0.000000)
 30:    744.67   0.009796   49.50  0.004105  (-0.063737  0.006525 -0.000000)
 31:    801.73   0.001869    9.45  0.000728  (-0.000007  0.000002 -0.026973)
 32:    802.36   0.010028   50.68  0.003900  (-0.058730  0.021241  0.000003)
 33:    869.37   0.000014    0.07  0.000005  ( 0.000038 -0.000037  0.002244)
 34:    869.40   0.000041    0.21  0.000015  (-0.002751  0.002646  0.000031)
 35:    878.20   0.000004    0.02  0.000001  (-0.000000  0.000000 -0.001204)
 36:    958.38   0.000140    0.71  0.000045  (-0.000028  0.000023  0.006744)
 37:    958.82   0.001747    8.83  0.000569  ( 0.018163 -0.015455  0.000011)
 38:    970.41   0.005271   26.64  0.001695  (-0.004655 -0.040906 -0.000000)
 39:    975.28   0.000237    1.20  0.000076  ( 0.000000  0.000000  0.008701)
 40:   1019.51   0.000048    0.24  0.000015  ( 0.000011 -0.000015 -0.003847)
 41:   1019.52   0.000090    0.45  0.000027  ( 0.003115 -0.004208  0.000014)
 42:   1023.26   0.000002    0.01  0.000001  (-0.000486  0.000625 -0.000000)
 43:   1024.05   0.000007    0.03  0.000002  (-0.000000 -0.000000  0.001427)
 44:   1044.33   0.000000    0.00  0.000000  ( 0.000087 -0.000121 -0.000302)
 45:   1044.35   0.000201    1.02  0.000060  (-0.004533  0.006290 -0.000006)
 46:   1060.62   0.000252    1.28  0.000074  (-0.000000  0.000000  0.008616)
 47:   1062.65   0.002025   10.23  0.000595  ( 0.000587 -0.024380 -0.000000)
 48:   1090.86   0.000988    4.99  0.000283  ( 0.000000  0.000000 -0.016813)
 49:   1097.25   0.002342   11.83  0.000666  (-0.009423 -0.024024 -0.000001)
 50:   1116.68   0.005312   26.84  0.001484  ( 0.000001 -0.000002  0.038529)
 51:   1117.52   0.001262    6.38  0.000352  ( 0.011195 -0.015066 -0.000004)
 52:   1136.60   0.000392    1.98  0.000108  ( 0.000000 -0.000000  0.010372)
 53:   1166.36   0.000029    0.15  0.000008  ( 0.000001  0.000003 -0.002785)
 54:   1166.67   0.000041    0.21  0.000011  ( 0.000924  0.003185  0.000003)
 55:   1189.08   0.000015    0.08  0.000004  ( 0.000007  0.000020  0.001977)
 56:   1189.16   0.000048    0.24  0.000013  (-0.001159 -0.003354  0.000012)
 57:   1292.51   0.003501   17.69  0.000845  ( 0.001869 -0.029012  0.000001)
 58:   1303.43   0.000963    4.87  0.000231  ( 0.000000 -0.000002 -0.015184)
 59:   1306.28   0.009035   45.66  0.002158  (-0.000839 -0.046452  0.000001)
 60:   1352.37   0.000665    3.36  0.000154  ( 0.001909  0.012244  0.000001)
 61:   1353.40   0.000129    0.65  0.000030  ( 0.000000  0.000007 -0.005457)
 62:   1355.88   0.006842   34.58  0.001575  ( 0.000438  0.039680  0.000001)
 63:   1388.11   0.001498    7.57  0.000337  (-0.000000 -0.000000 -0.018349)
 64:   1431.43   0.000120    0.60  0.000026  ( 0.000000 -0.000000  0.005108)
 65:   1467.66   0.023020  116.33  0.004895  ( 0.000341  0.069961 -0.000000)
 66:   1508.86   0.000671    3.39  0.000139  ( 0.008611 -0.008043 -0.000000)
 67:   1513.49   0.000802    4.05  0.000165  (-0.000000 -0.000000 -0.012860)
 68:   1560.10   0.063040  318.58  0.012610  (-0.000084  0.112294 -0.000000)
 69:   1567.64   0.001931    9.76  0.000384  (-0.000000  0.000002  0.019607)
 70:   1666.47   0.001532    7.74  0.000287  ( 0.000000 -0.000000 -0.016940)
 71:   1695.31   0.001091    5.51  0.000201  ( 0.008695  0.011192  0.000000)
 72:   1701.05   0.000340    1.72  0.000062  ( 0.000000 -0.000001 -0.007903)
 73:   1710.52   0.025372  128.22  0.004629  ( 0.001878 -0.068010  0.000001)
 74:   1714.47   0.001693    8.56  0.000308  (-0.000000 -0.000002 -0.017555)
 75:   3210.31   0.000398    2.01  0.000039  ( 0.000253 -0.006211  0.000007)
 76:   3210.36   0.000030    0.15  0.000003  ( 0.000000  0.000024  0.001705)
 77:   3219.09   0.001478    7.47  0.000143  ( 0.006509  0.010047  0.000104)
 78:   3219.12   0.000972    4.91  0.000094  ( 0.000065  0.000106 -0.009708)
 79:   3228.45   0.003051   15.42  0.000295  (-0.006264  0.015986  0.000336)
 80:   3228.56   0.002857   14.44  0.000276  ( 0.000122 -0.000328  0.016614)
 81:   3235.91   0.002458   12.42  0.000237  (-0.003728 -0.014939  0.000051)
 82:   3235.98   0.000083    0.42  0.000008  ( 0.000076  0.000290  0.002818)
 83:   3251.26   0.000171    0.86  0.000016  (-0.000413  0.004017  0.000340)
 84:   3251.26   0.000035    0.18  0.000003  (-0.000168  0.001636 -0.000833)
 85:   3294.20   0.001234    6.24  0.000117  ( 0.000498 -0.010802  0.000000)
 86:   3315.84   0.000051    0.26  0.000005  (-0.000000  0.000000 -0.002192)

--------------------------
THERMOCHEMISTRY AT 298.15K
--------------------------

Temperature         ... 298.15 K
Pressure            ... 1.00 atm
Total Mass          ... 220.28 AMU

Throughout the following assumptions are being made:
  (1) The electronic state is orbitally nondegenerate
  (2) There are no thermally accessible electronically excited states
  (3) Hindered rotations indicated by low frequency modes are not
      treated as such but are treated as vibrations and this may
      cause some error
  (4) All equations used are the standard statistical mechanics
      equations for an ideal gas
  (5) All vibrations are strictly harmonic

freq.      40.42  E(vib)   ...       0.54
freq.      40.88  E(vib)   ...       0.54
freq.      77.62  E(vib)   ...       0.49
freq.      90.05  E(vib)   ...       0.47
freq.     137.73  E(vib)   ...       0.42
freq.     181.49  E(vib)   ...       0.37
freq.     260.58  E(vib)   ...       0.30
freq.     293.80  E(vib)   ...       0.27
freq.     314.33  E(vib)   ...       0.25
freq.     420.99  E(vib)   ...       0.18
freq.     427.47  E(vib)   ...       0.18
freq.     432.08  E(vib)   ...       0.18
freq.     432.79  E(vib)   ...       0.17
freq.     492.38  E(vib)   ...       0.14
freq.     540.54  E(vib)   ...       0.12
freq.     570.15  E(vib)   ...       0.11
freq.     630.15  E(vib)   ...       0.09
freq.     632.12  E(vib)   ...       0.09
freq.     656.32  E(vib)   ...       0.08
freq.     662.23  E(vib)   ...       0.08
freq.     693.82  E(vib)   ...       0.07
freq.     724.44  E(vib)   ...       0.06
freq.     724.81  E(vib)   ...       0.06
freq.     728.74  E(vib)   ...       0.06
freq.     744.67  E(vib)   ...       0.06
freq.     801.73  E(vib)   ...       0.05
freq.     802.36  E(vib)   ...       0.05
freq.     869.37  E(vib)   ...       0.04
freq.     869.40  E(vib)   ...       0.04
freq.     878.20  E(vib)   ...       0.04
freq.     958.38  E(vib)   ...       0.03
freq.     958.82  E(vib)   ...       0.03
freq.     970.41  E(vib)   ...       0.03
freq.     975.28  E(vib)   ...       0.03
freq.    1019.51  E(vib)   ...       0.02
freq.    1019.52  E(vib)   ...       0.02
freq.    1023.26  E(vib)   ...       0.02
freq.    1024.05  E(vib)   ...       0.02
freq.    1044.33  E(vib)   ...       0.02
freq.    1044.35  E(vib)   ...       0.02
freq.    1060.62  E(vib)   ...       0.02
freq.    1062.65  E(vib)   ...       0.02
freq.    1090.86  E(vib)   ...       0.02
freq.    1097.25  E(vib)   ...       0.02
freq.    1116.68  E(vib)   ...       0.01
freq.    1117.52  E(vib)   ...       0.01
freq.    1136.60  E(vib)   ...       0.01
freq.    1166.36  E(vib)   ...       0.01
freq.    1166.67  E(vib)   ...       0.01
freq.    1189.08  E(vib)   ...       0.01
freq.    1189.16  E(vib)   ...       0.01
freq.    1292.51  E(vib)   ...       0.01
freq.    1303.43  E(vib)   ...       0.01
freq.    1306.28  E(vib)   ...       0.01
freq.    1352.37  E(vib)   ...       0.01
freq.    1353.40  E(vib)   ...       0.01
freq.    1355.88  E(vib)   ...       0.01
freq.    1388.11  E(vib)   ...       0.00
freq.    1431.43  E(vib)   ...       0.00
freq.    1467.66  E(vib)   ...       0.00
freq.    1508.86  E(vib)   ...       0.00
freq.    1513.49  E(vib)   ...       0.00
freq.    1560.10  E(vib)   ...       0.00
freq.    1567.64  E(vib)   ...       0.00
freq.    1666.47  E(vib)   ...       0.00
freq.    1695.31  E(vib)   ...       0.00
freq.    1701.05  E(vib)   ...       0.00
freq.    1710.52  E(vib)   ...       0.00
freq.    1714.47  E(vib)   ...       0.00
freq.    3210.31  E(vib)   ...       0.00
freq.    3210.36  E(vib)   ...       0.00
freq.    3219.09  E(vib)   ...       0.00
freq.    3219.12  E(vib)   ...       0.00
freq.    3228.45  E(vib)   ...       0.00
freq.    3228.56  E(vib)   ...       0.00
freq.    3235.91  E(vib)   ...       0.00
freq.    3235.98  E(vib)   ...       0.00
freq.    3251.26  E(vib)   ...       0.00
freq.    3251.26  E(vib)   ...       0.00
freq.    3294.20  E(vib)   ...       0.00
freq.    3315.84  E(vib)   ...       0.00

------------
INNER ENERGY
------------

The inner energy is: U= E(el) + E(ZPE) + E(vib) + E(rot) + E(trans)
    E(el)   - is the total energy from the electronic structure calculation
              = E(kin-el) + E(nuc-el) + E(el-el) + E(nuc-nuc)
    E(ZPE)  - the the zero temperature vibrational energy from the frequency calculation
    E(vib)  - the the finite temperature correction to E(ZPE) due to population
              of excited vibrational states
    E(rot)  - is the rotational thermal energy
    E(trans)- is the translational thermal energy

Summary of contributions to the inner energy U:
Electronic energy                ...   -687.61121134 Eh
Zero point energy                ...      0.23554505 Eh     147.81 kcal/mol
Thermal vibrational correction   ...      0.00966000 Eh       6.06 kcal/mol
Thermal rotational correction    ...      0.00141627 Eh       0.89 kcal/mol
Thermal translational correction ...      0.00141627 Eh       0.89 kcal/mol
-----------------------------------------------------------------------
Total thermal energy                   -687.36317374 Eh

Summary of corrections to the electronic energy:
(perhaps to be used in another calculation)
Total thermal correction                  0.01249254 Eh       7.84 kcal/mol
Non-thermal (ZPE) correction              0.23554505 Eh     147.81 kcal/mol
-----------------------------------------------------------------------
Total correction                          0.24803759 Eh     155.65 kcal/mol

--------
ENTHALPY
--------

The enthalpy is H = U + kB*T
                kB is Boltzmann's constant
Total free energy                 ...   -687.36317374 Eh
Thermal Enthalpy correction       ...      0.00094421 Eh       0.59 kcal/mol
-----------------------------------------------------------------------
Total Enthalpy                    ...   -687.36222954 Eh

Note: Rotational entropy computed according to Herzberg
Infrared and Raman Spectra, Chapter V,1, Van Nostrand Reinhold, 1945
Point Group:  C2, Symmetry Number:   2
Rotational constants in cm-1:     0.054882     0.006881     0.006302

Vibrational entropy computed according to the QRRHO of S. Grimme
Chem.Eur.J. 2012 18 9955

-------
ENTROPY
-------

The entropy contributions are T*S = T*(S(el)+S(vib)+S(rot)+S(trans))
     S(el)   - electronic entropy
     S(vib)  - vibrational entropy
     S(rot)  - rotational entropy
     S(trans)- translational entropy
The entropies will be listed as multiplied by the temperature to get

                             ****ORCA TERMINATED NORMALLY****
TOTAL RUN TIME: 0 days 0 hours 47 minutes 14 seconds 679 msec
