                         Program Version 5.0.4 -  RELEASE  -
|  1> ! SP wB97X D4 def2-SVP def2/J defgrid2
|  2> %maxcore 3000
|  3> %PAL NPROCS 4 END
|  4> * xyz 1 1
|  5> C 0.0014 0.6764 -1.8376
|  6> C 0.0123 -0.6829 -1.8412
|  7> C 0.0164 -0.0089 0.2603
|  8> H -0.0099 1.3981 -2.6521
|  9> H 0.0135 -1.4003 -2.6596
| 10> H 0.0237 -0.0118 1.3513
| 11> N 0.0042 1.0744 -0.5134
| 12> N 0.0219 -1.0879 -0.5192
| 13> C -0.0016 2.435 -0.0329
| 14> C -1.2396 3.0451 0.2083
| 15> C 1.2318 3.0696 0.1655
| 16> C -1.2187 4.3621 0.6762
| 17> C 1.2012 4.386 0.6345
| 18> C -0.0112 5.0243 0.8869
| 19> H -2.1666 4.8706 0.8738
| 20> H 2.1454 4.9126 0.8004
| 21> H -0.0151 6.055 1.2523
| 22> C 0.0333 -2.451 -0.0467
| 23> C -1.1941 -3.0569 0.2516
| 24> C 1.2722 -3.0918 0.0879
| 25> C -1.1563 -4.3777 0.7084
| 26> C 1.2588 -4.4113 0.5482
| 27> C 0.0569 -5.0464 0.8547
| 28> H -2.0956 -4.8837 0.9491
| 29> H 2.2076 -4.9426 0.6654
| 30> H 0.0662 -6.0798 1.2125
| 31> C 2.5311 2.3615 -0.1138
| 32> H 2.6327 1.4516 0.4992
| 33> H 2.6002 2.0531 -1.1692
| 34> H 3.3827 3.0184 0.1071
| 35> C 2.5591 -2.386 -0.2481
| 36> H 2.6018 -2.1201 -1.3164
| 37> H 2.6667 -1.4515 0.3255
| 38> H 3.4208 -3.0278 -0.0217
| 39> C -2.5341 2.3122 -0.0254
| 40> H -2.6205 1.9747 -1.0704
| 41> H -2.611 1.418 0.6141
| 42> H -3.3903 2.963 0.1959
| 43> C -2.4951 -2.3142 0.0984
| 44> H -2.5779 -1.5 0.8371
| 45> H -2.5877 -1.8598 -0.9005
| 46> H -3.345 -2.9929 0.2487
| 47> **                         ****END OF INPUT****

CARTESIAN COORDINATES (ANGSTROEM)
---------------------------------
  C      0.001400    0.676400   -1.837600
  C      0.012300   -0.682900   -1.841200
  C      0.016400   -0.008900    0.260300
  H     -0.009900    1.398100   -2.652100
  H      0.013500   -1.400300   -2.659600
  H      0.023700   -0.011800    1.351300
  N      0.004200    1.074400   -0.513400
  N      0.021900   -1.087900   -0.519200
  C     -0.001600    2.435000   -0.032900
  C     -1.239600    3.045100    0.208300
  C      1.231800    3.069600    0.165500
  C     -1.218700    4.362100    0.676200
  C      1.201200    4.386000    0.634500
  C     -0.011200    5.024300    0.886900
  H     -2.166600    4.870600    0.873800
  H      2.145400    4.912600    0.800400
  H     -0.015100    6.055000    1.252300
  C      0.033300   -2.451000   -0.046700
  C     -1.194100   -3.056900    0.251600
  C      1.272200   -3.091800    0.087900
  C     -1.156300   -4.377700    0.708400
  C      1.258800   -4.411300    0.548200
  C      0.056900   -5.046400    0.854700
  H     -2.095600   -4.883700    0.949100
  H      2.207600   -4.942600    0.665400
  H      0.066200   -6.079800    1.212500
  C      2.531100    2.361500   -0.113800
  H      2.632700    1.451600    0.499200
  H      2.600200    2.053100   -1.169200
  H      3.382700    3.018400    0.107100
  C      2.559100   -2.386000   -0.248100
  H      2.601800   -2.120100   -1.316400
  H      2.666700   -1.451500    0.325500
  H      3.420800   -3.027800   -0.021700
  C     -2.534100    2.312200   -0.025400
  H     -2.620500    1.974700   -1.070400
  H     -2.611000    1.418000    0.614100
  H     -3.390300    2.963000    0.195900
  C     -2.495100   -2.314200    0.098400
  H     -2.577900   -1.500000    0.837100
  H     -2.587700   -1.859800   -0.900500
  H     -3.345000   -2.992900    0.248700

 Total Charge           Charge          ....    1
 Multiplicity           Mult            ....    1
 Number of Electrons    NEL             ....  148
 Basis Dimension        Dim             ....  399

ORBITAL ENERGIES
----------------

  NO   OCC          E(Eh)            E(eV)
   0   2.0000     -14.652276      -398.7087
   1   2.0000     -14.652249      -398.7080
   2   2.0000     -10.527913      -286.4791
   3   2.0000     -10.476404      -285.0774
   4   2.0000     -10.475817      -285.0615
   5   2.0000     -10.446254      -284.2570
   6   2.0000     -10.446206      -284.2557
   7   2.0000     -10.415684      -283.4252
   8   2.0000     -10.415567      -283.4220
   9   2.0000     -10.415551      -283.4216
  10   2.0000     -10.415436      -283.4184
  11   2.0000     -10.395428      -282.8740
  12   2.0000     -10.395123      -282.8657
  13   2.0000     -10.395093      -282.8649
  14   2.0000     -10.394875      -282.8589
  15   2.0000     -10.394726      -282.8549
  16   2.0000     -10.394714      -282.8545
  17   2.0000     -10.391388      -282.7641
  18   2.0000     -10.391377      -282.7637
  19   2.0000     -10.391369      -282.7635
  20   2.0000     -10.391354      -282.7631
  21   2.0000      -1.357404       -36.9368
  22   2.0000      -1.238085       -33.6900
  23   2.0000      -1.129541       -30.7364
  24   2.0000      -1.108204       -30.1558
  25   2.0000      -1.068203       -29.0673
  26   2.0000      -1.038366       -28.2554
  27   2.0000      -1.037815       -28.2404
  28   2.0000      -1.029625       -28.0175
  29   2.0000      -1.001774       -27.2596
  30   2.0000      -0.967058       -26.3150
  31   2.0000      -0.946219       -25.7479
  32   2.0000      -0.923088       -25.1185
  33   2.0000      -0.921881       -25.0857
  34   2.0000      -0.913240       -24.8505
  35   2.0000      -0.901605       -24.5339
  36   2.0000      -0.868509       -23.6333
  37   2.0000      -0.842741       -22.9321
  38   2.0000      -0.829671       -22.5765
  39   2.0000      -0.824655       -22.4400
  40   2.0000      -0.796920       -21.6853
  41   2.0000      -0.764781       -20.8108
  42   2.0000      -0.762427       -20.7467
  43   2.0000      -0.737927       -20.0800
  44   2.0000      -0.724460       -19.7135
  45   2.0000      -0.722348       -19.6561
  46   2.0000      -0.720296       -19.6002
  47   2.0000      -0.694524       -18.8990
  48   2.0000      -0.694470       -18.8975
  49   2.0000      -0.692252       -18.8371
  50   2.0000      -0.662929       -18.0392
  51   2.0000      -0.661022       -17.9873
  52   2.0000      -0.651959       -17.7407
  53   2.0000      -0.650089       -17.6898
  54   2.0000      -0.649433       -17.6720
  55   2.0000      -0.645017       -17.5518
  56   2.0000      -0.635923       -17.3043
  57   2.0000      -0.635620       -17.2961
  58   2.0000      -0.631970       -17.1968
  59   2.0000      -0.629492       -17.1294
  60   2.0000      -0.602876       -16.4051
  61   2.0000      -0.600064       -16.3286
  62   2.0000      -0.595916       -16.2157
  63   2.0000      -0.583685       -15.8829
  64   2.0000      -0.580955       -15.8086
  65   2.0000      -0.572252       -15.5718
  66   2.0000      -0.569433       -15.4951
  67   2.0000      -0.568578       -15.4718
  68   2.0000      -0.550914       -14.9911
  69   2.0000      -0.516542       -14.0558
  70   2.0000      -0.474832       -12.9208
  71   2.0000      -0.470860       -12.8127
  72   2.0000      -0.456866       -12.4320
  73   2.0000      -0.455929       -12.4065
  74   0.0000      -0.086697        -2.3592
  75   0.0000      -0.065377        -1.7790
  76   0.0000      -0.057919        -1.5761
  77   0.0000      -0.049464        -1.3460
  78   0.0000      -0.046538        -1.2664

MULLIKEN ATOMIC CHARGES
-----------------------
   0 C :    0.084629
   1 C :    0.085360
   2 C :    0.226488
   3 H :    0.101128
   4 H :    0.101249
   5 H :    0.122010
   6 N :   -0.175287
   7 N :   -0.175536
   8 C :   -0.020126
   9 C :   -0.075311
  10 C :   -0.075568
  11 C :   -0.060237
  12 C :   -0.060135
  13 C :    0.043606
  14 H :    0.032948
  15 H :    0.032987
  16 H :    0.050807
  17 C :   -0.019449
  18 C :   -0.075544
  19 C :   -0.075720
  20 C :   -0.059641
  21 C :   -0.060548
  22 C :    0.043200
  23 H :    0.032946
  24 H :    0.033020
  25 H :    0.050905
  26 C :    0.064858
  27 H :    0.041697
  28 H :    0.055092
  29 H :    0.061871
  30 C :    0.067457
  31 H :    0.057276
  32 H :    0.037333
  33 H :    0.061884
  34 C :    0.065661
  35 H :    0.053727
  36 H :    0.041012
  37 H :    0.061932
  38 C :    0.062272
  39 H :    0.049376
  40 H :    0.047365
  41 H :    0.063009
Sum of atomic charges:    1.0000000

LOEWDIN ATOMIC CHARGES
----------------------
   0 C :    0.027912
   1 C :    0.027805
   2 C :    0.124176
   3 H :    0.061360
   4 H :    0.061387
   5 H :    0.065085
   6 N :    0.117473
   7 N :    0.117441
   8 C :   -0.027241
   9 C :   -0.017877
  10 C :   -0.017759
  11 C :   -0.019813
  12 C :   -0.019777
  13 C :    0.013355
  14 H :    0.043582
  15 H :    0.043620
  16 H :    0.049504
  17 C :   -0.027224
  18 C :   -0.018007
  19 C :   -0.017761
  20 C :   -0.019729
  21 C :   -0.019657
  22 C :    0.013300
  23 H :    0.043608
  24 H :    0.043644
  25 H :    0.049506
  26 C :   -0.049231
  27 H :    0.034462
  28 H :    0.040782
  29 H :    0.049623
  30 C :   -0.048961
  31 H :    0.041714
  32 H :    0.033530
  33 H :    0.049533
  34 C :   -0.049256
  35 H :    0.040154
  36 H :    0.034930
  37 H :    0.049631
  38 C :   -0.049852
  39 H :    0.037587
  40 H :    0.037408
  41 H :    0.050033

  Mayer bond orders larger than 0.100000
B(  0-C ,  1-C ) :   1.5846 B(  0-C ,  3-H ) :   0.9893 B(  0-C ,  6-N ) :   1.1584
B(  1-C ,  4-H ) :   0.9893 B(  1-C ,  7-N ) :   1.1584 B(  2-C ,  5-H ) :   0.9730
B(  2-C ,  6-N ) :   1.3414 B(  2-C ,  7-N ) :   1.3411 B(  6-N ,  8-C ) :   0.8725
B(  7-N , 17-C ) :   0.8717 B(  8-C ,  9-C ) :   1.4192 B(  8-C , 10-C ) :   1.4188
B(  9-C , 11-C ) :   1.4090 B(  9-C , 34-C ) :   1.0392 B( 10-C , 12-C ) :   1.4095
B( 10-C , 26-C ) :   1.0390 B( 11-C , 13-C ) :   1.3909 B( 11-C , 14-H ) :   0.9885
B( 12-C , 13-C ) :   1.3907 B( 12-C , 15-H ) :   0.9885 B( 13-C , 16-H ) :   0.9886
B( 17-C , 18-C ) :   1.4204 B( 17-C , 19-C ) :   1.4177 B( 18-C , 20-C ) :   1.4076
B( 18-C , 38-C ) :   1.0402 B( 19-C , 21-C ) :   1.4101 B( 19-C , 30-C ) :   1.0400
B( 20-C , 22-C ) :   1.3921 B( 20-C , 23-H ) :   0.9887 B( 21-C , 22-C ) :   1.3897
B( 21-C , 24-H ) :   0.9886 B( 22-C , 25-H ) :   0.9886 B( 26-C , 27-H ) :   0.9580
B( 26-C , 28-H ) :   0.9574 B( 26-C , 29-H ) :   0.9551 B( 30-C , 31-H ) :   0.9556
B( 30-C , 32-H ) :   0.9591 B( 30-C , 33-H ) :   0.9553 B( 34-C , 35-H ) :   0.9579
B( 34-C , 36-H ) :   0.9573 B( 34-C , 37-H ) :   0.9554 B( 38-C , 39-H ) :   0.9558
B( 38-C , 40-H ) :   0.9598 B( 38-C , 41-H ) :   0.9549

Dispersion correction           -0.009508844
FINAL SINGLE POINT ENERGY      -845.173387280969

DIPOLE MOMENT
-------------
                                X             Y             Z
Electronic contribution:      0.00604      -0.00937      -0.51314
Nuclear contribution   :     -0.00612       0.01109       0.09133
                        -----------------------------------------
Total Dipole Moment    :     -0.00008       0.00173      -0.42180
                        -----------------------------------------
Magnitude (a.u.)       :      0.42181
Magnitude (Debye)      :      1.07215

Rotational constants in cm-1:     0.023099     0.005958     0.005197
Rotational constants in MHz :   692.488154   178.621618   155.804716

                             ****ORCA TERMINATED NORMALLY****
TOTAL RUN TIME: 0 days 0 hours 3 minutes 27 seconds 696 msec
