                         Program Version 5.0.4 -  RELEASE  -
|  1> # ORCA 5.0.4 - 8.inp # write input file
|  2> # Basic Mode
|  3> #
|  4> ! Freq wB97X Def2-SVP D4 SlowConv TightSCF DEFGRID2 Def2/J RIJCOSX
|  5>
|  6>
|  7>
|  8> %maxcore 4500
|  9>
| 10> %geom
| 11> Maxiter 150
| 12> END
| 13>
| 14> * xyzfile 0 1 8.xyz
| 15>
| 16>                          ****END OF INPUT****

CARTESIAN COORDINATES (ANGSTROEM)
---------------------------------
  C      0.307206    0.760123   -1.724586
  C      0.216640   -0.587622   -1.795827
  C     -0.071982   -0.006195    0.407699
  H      0.477435    1.511721   -2.493201
  H      0.294439   -1.270605   -2.639556
  N      0.129578    1.084213   -0.383701
  N     -0.014014   -1.024071   -0.496027
  C      0.157280    2.424773    0.118128
  C     -1.056643    3.073924    0.381191
  C      1.398488    3.039947    0.330644
  C     -1.006147    4.385939    0.859109
  C      1.406312    4.353761    0.806516
  C      0.213979    5.023211    1.066336
  H     -1.941471    4.912802    1.070180
  H      2.364492    4.852660    0.979840
  H      0.235928    6.050951    1.439156
  C     -0.169701   -2.402267   -0.141031
  C     -1.399616   -3.028525   -0.384863
  C      0.913818   -3.076602    0.438068
  C     -1.524988   -4.379793   -0.051116
  C      0.746908   -4.425589    0.761602
  C     -0.459863   -5.074222    0.515214
  H     -2.477341   -4.887854   -0.230389
  H      1.578958   -4.970185    1.217870
  H     -0.574209   -6.130534    0.773880
  C      2.679224    2.288782    0.079019
  H      2.694359    1.348235    0.652230
  H      2.793285    2.018451   -0.982664
  H      3.550832    2.890304    0.372031
  C      2.202706   -2.353685    0.722920
  H      2.592031   -1.854452   -0.178654
  H      2.039440   -1.568933    1.478294
  H      2.969233   -3.048874    1.092584
  C     -2.366826    2.361622    0.177426
  H     -3.214288    3.040604    0.345746
  H     -2.446366    1.952045   -0.842233
  H     -2.451393    1.510413    0.871167
  C     -2.553481   -2.252591   -0.963986
  H     -2.744287   -1.342709   -0.373475
  H     -2.349381   -1.927395   -1.996660
  H     -3.469054   -2.860179   -0.974274

 Total Charge           Charge          ....    0
 Multiplicity           Mult            ....    1
 Number of Electrons    NEL             ....  148
 Basis Dimension        Dim             ....  394

ORBITAL ENERGIES
----------------

  NO   OCC          E(Eh)            E(eV)
   0   2.0000     -14.452986      -393.2857
   1   2.0000     -14.452976      -393.2855
   2   2.0000     -10.305723      -280.4330
   3   2.0000     -10.305659      -280.4312
   4   2.0000     -10.304386      -280.3966
   5   2.0000     -10.303783      -280.3802
   6   2.0000     -10.285013      -279.8694
   7   2.0000     -10.284919      -279.8669
   8   2.0000     -10.283927      -279.8399
   9   2.0000     -10.283757      -279.8353
  10   2.0000     -10.277373      -279.6615
  11   2.0000     -10.275597      -279.6132
  12   2.0000     -10.275595      -279.6131
  13   2.0000     -10.272019      -279.5158
  14   2.0000     -10.271896      -279.5125
  15   2.0000     -10.271821      -279.5105
  16   2.0000     -10.271779      -279.5093
  17   2.0000     -10.271252      -279.4950
  18   2.0000     -10.271218      -279.4941
  19   2.0000     -10.267165      -279.3838
  20   2.0000     -10.266761      -279.3728
  21   2.0000      -1.154450       -31.4142
  22   2.0000      -1.055207       -28.7136
  23   2.0000      -0.993958       -27.0470
  24   2.0000      -0.973002       -26.4767
  25   2.0000      -0.910716       -24.7818
  26   2.0000      -0.910546       -24.7772
  27   2.0000      -0.904133       -24.6027
  28   2.0000      -0.870817       -23.6961
  29   2.0000      -0.867401       -23.6032
  30   2.0000      -0.827436       -22.5157
  31   2.0000      -0.809496       -22.0275
  32   2.0000      -0.799813       -21.7640
  33   2.0000      -0.799101       -21.7446
  34   2.0000      -0.758664       -20.6443
  35   2.0000      -0.735066       -20.0022
  36   2.0000      -0.697034       -18.9673
  37   2.0000      -0.694970       -18.9111
  38   2.0000      -0.692151       -18.8344
  39   2.0000      -0.676817       -18.4171
  40   2.0000      -0.649554       -17.6753
  41   2.0000      -0.615690       -16.7538
  42   2.0000      -0.609126       -16.5751
  43   2.0000      -0.596046       -16.2192
  44   2.0000      -0.591757       -16.1025
  45   2.0000      -0.560927       -15.2636
  46   2.0000      -0.556216       -15.1354
  47   2.0000      -0.551387       -15.0040
  48   2.0000      -0.534191       -14.5361
  49   2.0000      -0.532983       -14.5032
  50   2.0000      -0.529199       -14.4002
  51   2.0000      -0.523551       -14.2465
  52   2.0000      -0.522829       -14.2269
  53   2.0000      -0.518969       -14.1219
  54   2.0000      -0.518285       -14.1033
  55   2.0000      -0.512360       -13.9420
  56   2.0000      -0.512239       -13.9387
  57   2.0000      -0.510547       -13.8927
  58   2.0000      -0.507998       -13.8233
  59   2.0000      -0.479310       -13.0427
  60   2.0000      -0.477070       -12.9817
  61   2.0000      -0.458535       -12.4774
  62   2.0000      -0.456135       -12.4121
  63   2.0000      -0.454234       -12.3603
  64   2.0000      -0.450857       -12.2684
  65   2.0000      -0.444630       -12.0990
  66   2.0000      -0.443262       -12.0618
  67   2.0000      -0.388609       -10.5746
  68   2.0000      -0.341033        -9.2800
  69   2.0000      -0.340358        -9.2616
  70   2.0000      -0.334339        -9.0978
  71   2.0000      -0.333082        -9.0636
  72   2.0000      -0.327932        -8.9235
  73   2.0000      -0.313202        -8.5227
  74   0.0000       0.066561         1.8112
  75   0.0000       0.071158         1.9363
  76   0.0000       0.077461         2.1078
  77   0.0000       0.078029         2.1233
  78   0.0000       0.114145         3.1061

MULLIKEN ATOMIC CHARGES
-----------------------
   0 C :    0.049595
   1 C :    0.049626
   2 C :   -0.065804
   3 H :    0.041085
   4 H :    0.040987
   5 N :   -0.221761
   6 N :   -0.222031
   7 C :    0.064394
   8 C :   -0.085115
   9 C :   -0.092441
  10 C :   -0.071081
  11 C :   -0.071779
  12 C :    0.026393
  13 H :   -0.003372
  14 H :   -0.003858
  15 H :    0.010812
  16 C :    0.064940
  17 C :   -0.092857
  18 C :   -0.086441
  19 C :   -0.071806
  20 C :   -0.070435
  21 C :    0.026017
  22 H :   -0.003735
  23 H :   -0.003349
  24 H :    0.010939
  25 C :    0.086180
  26 H :    0.048683
  27 H :    0.036630
  28 H :    0.021826
  29 C :    0.082719
  30 H :    0.030768
  31 H :    0.066387
  32 H :    0.018223
  33 C :    0.081433
  34 H :    0.018743
  35 H :    0.031098
  36 H :    0.065638
  37 C :    0.085642
  38 H :    0.047144
  39 H :    0.037357
  40 H :    0.022605
Sum of atomic charges:   -0.0000000

LOEWDIN ATOMIC CHARGES
----------------------
   0 C :   -0.029004
   1 C :   -0.028680
   2 C :   -0.223999
   3 H :    0.033059
   4 H :    0.033010
   5 N :    0.038078
   6 N :    0.038009
   7 C :    0.009933
   8 C :   -0.015413
   9 C :   -0.021426
  10 C :   -0.039378
  11 C :   -0.040669
  12 C :   -0.021513
  13 H :    0.028185
  14 H :    0.027842
  15 H :    0.031812
  16 C :    0.010034
  17 C :   -0.021898
  18 C :   -0.015314
  19 C :   -0.040621
  20 C :   -0.039226
  21 C :   -0.021702
  22 H :    0.027869
  23 H :    0.028217
  24 H :    0.031817
  25 C :   -0.050352
  26 H :    0.040871
  27 H :    0.034102
  28 H :    0.030802
  29 C :   -0.051548
  30 H :    0.033716
  31 H :    0.044056
  32 H :    0.028834
  33 C :   -0.051505
  34 H :    0.029051
  35 H :    0.033792
  36 H :    0.043922
  37 C :   -0.050445
  38 H :    0.040248
  39 H :    0.034380
  40 H :    0.031054

  Mayer bond orders larger than 0.100000
B(  0-C ,  1-C ) :   1.6267 B(  0-C ,  3-H ) :   0.9916 B(  0-C ,  5-N ) :   1.0931
B(  1-C ,  4-H ) :   0.9916 B(  1-C ,  6-N ) :   1.0934 B(  2-C ,  5-N ) :   1.1968
B(  2-C ,  6-N ) :   1.1959 B(  5-N ,  7-C ) :   0.9489 B(  6-N , 16-C ) :   0.9483
B(  7-C ,  8-C ) :   1.4381 B(  7-C ,  9-C ) :   1.4367 B(  8-C , 10-C ) :   1.3968
B(  8-C , 33-C ) :   1.0542 B(  9-C , 11-C ) :   1.3968 B(  9-C , 25-C ) :   1.0522
B( 10-C , 12-C ) :   1.3882 B( 10-C , 13-H ) :   0.9895 B( 11-C , 12-C ) :   1.3894
B( 11-C , 14-H ) :   0.9895 B( 12-C , 15-H ) :   0.9899 B( 16-C , 17-C ) :   1.4370
B( 16-C , 18-C ) :   1.4374 B( 17-C , 19-C ) :   1.3959 B( 17-C , 37-C ) :   1.0525
B( 18-C , 20-C ) :   1.3974 B( 18-C , 29-C ) :   1.0549 B( 19-C , 21-C ) :   1.3897
B( 19-C , 22-H ) :   0.9899 B( 20-C , 21-C ) :   1.3874 B( 20-C , 23-H ) :   0.9895
B( 21-C , 24-H ) :   0.9898 B( 25-C , 26-H ) :   0.9549 B( 25-C , 27-H ) :   0.9508
B( 25-C , 28-H ) :   0.9583 B( 29-C , 30-H ) :   0.9552 B( 29-C , 31-H ) :   0.9465
B( 29-C , 32-H ) :   0.9565 B( 33-C , 34-H ) :   0.9567 B( 33-C , 35-H ) :   0.9554
B( 33-C , 36-H ) :   0.9473 B( 37-C , 38-H ) :   0.9554 B( 37-C , 39-H ) :   0.9507
B( 37-C , 40-H ) :   0.9586

Dispersion correction           -0.009617550
FINAL SINGLE POINT ENERGY      -844.732914075522

DIPOLE MOMENT
-------------
                                X             Y             Z
Electronic contribution:      0.02363       0.00452      -0.11616
Nuclear contribution   :      0.12258       0.03808      -0.83889
                        -----------------------------------------
Total Dipole Moment    :      0.14621       0.04261      -0.95505
                        -----------------------------------------
Magnitude (a.u.)       :      0.96712
Magnitude (Debye)      :      2.45822

Dispersion correction in the Hessian             ... Starting D4

VIBRATIONAL FREQUENCIES
-----------------------

Scaling factor for frequencies =  1.000000000  (already applied!)

   0:         0.00 cm**-1
   1:         0.00 cm**-1
   2:         0.00 cm**-1
   3:         0.00 cm**-1
   4:         0.00 cm**-1
   5:         0.00 cm**-1
   6:        14.10 cm**-1
   7:        20.08 cm**-1
   8:        55.23 cm**-1
   9:        63.64 cm**-1
  10:        90.98 cm**-1
  11:        93.71 cm**-1
  12:       124.10 cm**-1
  13:       138.57 cm**-1
  14:       147.26 cm**-1
  15:       156.82 cm**-1
  16:       171.26 cm**-1
  17:       202.52 cm**-1
  18:       210.36 cm**-1
  19:       238.69 cm**-1
  20:       239.79 cm**-1
  21:       286.12 cm**-1
  22:       308.58 cm**-1
  23:       336.26 cm**-1
  24:       358.07 cm**-1
  25:       362.29 cm**-1
  26:       398.38 cm**-1
  27:       437.37 cm**-1
  28:       485.67 cm**-1
  29:       494.82 cm**-1
  30:       535.71 cm**-1
  31:       536.37 cm**-1
  32:       544.14 cm**-1
  33:       548.60 cm**-1
  34:       578.42 cm**-1
  35:       596.49 cm**-1
  36:       602.07 cm**-1
  37:       629.68 cm**-1
  38:       681.63 cm**-1
  39:       686.01 cm**-1
  40:       754.50 cm**-1
  41:       770.84 cm**-1
  42:       782.80 cm**-1
  43:       788.23 cm**-1
  44:       796.11 cm**-1
  45:       800.42 cm**-1
  46:       805.71 cm**-1
  47:       881.03 cm**-1
  48:       932.16 cm**-1
  49:       938.37 cm**-1
  50:       945.65 cm**-1
  51:       945.68 cm**-1
  52:       966.21 cm**-1
  53:       974.05 cm**-1
  54:      1009.55 cm**-1
  55:      1010.02 cm**-1
  56:      1026.30 cm**-1
  57:      1028.33 cm**-1
  58:      1059.17 cm**-1
  59:      1060.68 cm**-1
  60:      1061.96 cm**-1
  61:      1064.63 cm**-1
  62:      1064.87 cm**-1
  63:      1065.13 cm**-1
  64:      1092.94 cm**-1
  65:      1097.78 cm**-1
  66:      1103.65 cm**-1
  67:      1130.95 cm**-1
  68:      1143.35 cm**-1
  69:      1180.03 cm**-1
  70:      1180.22 cm**-1
  71:      1267.94 cm**-1
  72:      1279.40 cm**-1
  73:      1281.65 cm**-1
  74:      1300.97 cm**-1
  75:      1304.39 cm**-1
  76:      1327.07 cm**-1
  77:      1335.72 cm**-1
  78:      1337.89 cm**-1
  79:      1372.80 cm**-1
  80:      1401.72 cm**-1
  81:      1402.89 cm**-1
  82:      1404.19 cm**-1
  83:      1409.23 cm**-1
  84:      1425.36 cm**-1
  85:      1445.03 cm**-1
  86:      1454.31 cm**-1
  87:      1457.03 cm**-1
  88:      1461.19 cm**-1
  89:      1461.79 cm**-1
  90:      1463.07 cm**-1
  91:      1466.76 cm**-1
  92:      1470.96 cm**-1
  93:      1476.79 cm**-1
  94:      1538.25 cm**-1
  95:      1538.73 cm**-1
  96:      1560.80 cm**-1
  97:      1566.79 cm**-1
  98:      1655.97 cm**-1
  99:      1704.91 cm**-1
 100:      1706.52 cm**-1
 101:      1709.47 cm**-1
 102:      1710.02 cm**-1
 103:      3067.09 cm**-1
 104:      3067.66 cm**-1
 105:      3068.55 cm**-1
 106:      3069.06 cm**-1
 107:      3156.64 cm**-1
 108:      3156.73 cm**-1
 109:      3157.69 cm**-1
 110:      3157.90 cm**-1
 111:      3182.60 cm**-1
 112:      3182.82 cm**-1
 113:      3183.07 cm**-1
 114:      3183.38 cm**-1
 115:      3204.07 cm**-1
 116:      3204.90 cm**-1
 117:      3211.85 cm**-1
 118:      3212.75 cm**-1
 119:      3228.19 cm**-1
 120:      3228.92 cm**-1
 121:      3285.60 cm**-1
 122:      3308.43 cm**-1

IR SPECTRUM
-----------

 Mode   freq       eps      Int      T**2         TX        TY        TZ
       cm**-1   L/(mol*cm) km/mol    a.u.
----------------------------------------------------------------------------
  6:     14.10   0.000003    0.02  0.000073  (-0.007005  0.001172 -0.004730)
  7:     20.08   0.000022    0.11  0.000343  ( 0.017547 -0.005813 -0.001197)
  8:     55.23   0.000035    0.18  0.000196  (-0.009824  0.002185  0.009732)
  9:     63.64   0.000978    4.94  0.004796  (-0.065455  0.019002 -0.012290)
 10:     90.98   0.000000    0.00  0.000001  (-0.000934  0.000376  0.000104)
 11:     93.71   0.000086    0.44  0.000288  ( 0.016460  0.002559  0.003182)
 12:    124.10   0.000443    2.24  0.001113  (-0.004044 -0.002049  0.033052)
 13:    138.57   0.000239    1.21  0.000539  (-0.011889  0.008268  0.018145)
 14:    147.26   0.000258    1.30  0.000546  ( 0.009578 -0.020615  0.005449)
 15:    156.82   0.000063    0.32  0.000125  (-0.004789  0.009557  0.003268)
 16:    171.26   0.000028    0.14  0.000052  ( 0.001658 -0.005084 -0.004820)
 17:    202.52   0.001080    5.46  0.001665  ( 0.006215 -0.040270 -0.002090)
 18:    210.36   0.000373    1.88  0.000553  ( 0.003285  0.005190 -0.022702)
 19:    238.69   0.000011    0.05  0.000014  ( 0.001218  0.001073  0.003344)
 20:    239.79   0.000019    0.09  0.000024  ( 0.004035  0.002642  0.001090)
 21:    286.12   0.000615    3.11  0.000670  ( 0.002648  0.025753  0.000259)
 22:    308.58   0.001729    8.74  0.001748  (-0.039734  0.010199 -0.008085)
 23:    336.26   0.000916    4.63  0.000850  ( 0.006938 -0.000339 -0.028322)
 24:    358.07   0.000582    2.94  0.000508  ( 0.003598  0.000971 -0.022220)
 25:    362.29   0.000026    0.13  0.000023  ( 0.000794  0.000507 -0.004678)
 26:    398.38   0.000664    3.35  0.000520  (-0.007057 -0.021609 -0.001791)
 27:    437.37   0.000037    0.19  0.000026  ( 0.004175  0.002833  0.000880)
 28:    485.67   0.000101    0.51  0.000065  ( 0.007833 -0.001576  0.001154)
 29:    494.82   0.000001    0.01  0.000001  (-0.000426  0.000314  0.000718)
 30:    535.71   0.000080    0.40  0.000047  ( 0.006397  0.002107  0.001068)
 31:    536.37   0.000013    0.07  0.000008  (-0.002583 -0.000953 -0.000363)
 32:    544.14   0.000093    0.47  0.000053  ( 0.006887  0.002035  0.001332)
 33:    548.60   0.000008    0.04  0.000005  ( 0.000102  0.000269 -0.002146)
 34:    578.42   0.000173    0.87  0.000093  (-0.001546 -0.000576  0.009509)
 35:    596.49   0.000060    0.30  0.000031  (-0.000774  0.000620  0.005500)
 36:    602.07   0.000100    0.50  0.000052  (-0.001269 -0.007073  0.000308)
 37:    629.68   0.001851    9.35  0.000917  ( 0.003117  0.030078  0.001720)
 38:    681.63   0.000883    4.46  0.000404  (-0.017974 -0.007948 -0.004234)
 39:    686.01   0.000053    0.27  0.000024  ( 0.002753  0.001711 -0.003708)
 40:    754.50   0.006583   33.27  0.002723  (-0.051603  0.002504 -0.007325)
 41:    770.84   0.000020    0.10  0.000008  ( 0.000428 -0.000548  0.002739)
 42:    782.80   0.000955    4.83  0.000381  ( 0.000104 -0.019439 -0.001715)
 43:    788.23   0.000299    1.51  0.000118  ( 0.001977  0.000660 -0.010678)
 44:    796.11   0.000719    3.64  0.000282  (-0.004649 -0.015854 -0.003001)
 45:    800.42   0.007076   35.76  0.002759  (-0.014866  0.016431  0.047621)
 46:    805.71   0.005901   29.82  0.002285  (-0.001812  0.024850 -0.040800)
 47:    881.03   0.000018    0.09  0.000006  ( 0.001784  0.000066  0.001816)
 48:    932.16   0.000003    0.01  0.000001  (-0.000179  0.000940  0.000049)
 49:    938.37   0.000008    0.04  0.000003  ( 0.000592  0.001512  0.000061)
 50:    945.65   0.000564    2.85  0.000186  ( 0.012560  0.003247  0.004218)
 51:    945.68   0.000413    2.09  0.000136  (-0.011308 -0.002776  0.000847)
 52:    966.21   0.007617   38.50  0.002460  (-0.002575 -0.049456 -0.002785)
 53:    974.05   0.000436    2.20  0.000140  (-0.001667 -0.001200  0.011641)
 54:   1009.55   0.001274    6.44  0.000394  (-0.000012  0.019783  0.001524)
 55:   1010.02   0.000079    0.40  0.000025  ( 0.000770  0.003618 -0.003292)
 56:   1026.30   0.000030    0.15  0.000009  ( 0.000281 -0.000772  0.002885)
 57:   1028.33   0.000027    0.14  0.000008  ( 0.000827 -0.000152 -0.002744)
 58:   1059.17   0.000577    2.91  0.000170  (-0.000353  0.000736  0.013010)
 59:   1060.68   0.000414    2.09  0.000122  ( 0.001800  0.001410 -0.010794)
 60:   1061.96   0.000692    3.50  0.000203  (-0.000835  0.004523 -0.013496)
 61:   1064.63   0.000250    1.26  0.000073  ( 0.005930  0.004016 -0.004693)
 62:   1064.87   0.000971    4.91  0.000285  ( 0.004085 -0.002952 -0.016099)
 63:   1065.13   0.000144    0.73  0.000042  ( 0.000632  0.002692  0.005872)
 64:   1092.94   0.003171   16.02  0.000905  (-0.004914 -0.002988  0.029534)
 65:   1097.78   0.000146    0.74  0.000041  ( 0.001271 -0.002918 -0.005593)
 66:   1103.65   0.000357    1.80  0.000101  (-0.001713  0.000740  0.009870)
 67:   1130.95   0.004090   20.67  0.001128  (-0.001792 -0.033464 -0.002321)
 68:   1143.35   0.000151    0.76  0.000041  ( 0.000946  0.005423 -0.003291)
 69:   1180.03   0.000324    1.64  0.000086  ( 0.009236  0.000067 -0.000669)
 70:   1180.22   0.000458    2.31  0.000121  (-0.010429  0.000712 -0.003425)
 71:   1267.94   0.004442   22.45  0.001093  (-0.002363 -0.032923 -0.001921)
 72:   1279.40   0.000117    0.59  0.000029  ( 0.001755 -0.005025 -0.000422)
 73:   1281.65   0.000168    0.85  0.000041  ( 0.001776 -0.006135  0.000052)
 74:   1300.97   0.000006    0.03  0.000001  (-0.000064  0.000872  0.000833)
 75:   1304.39   0.000367    1.85  0.000088  ( 0.000054 -0.009354 -0.000544)
 76:   1327.07   0.002602   13.15  0.000612  ( 0.000262 -0.024706 -0.001217)
 77:   1335.72   0.000003    0.02  0.000001  (-0.000877 -0.000018 -0.000128)
 78:   1337.89   0.001076    5.44  0.000251  ( 0.015191  0.003715  0.002543)
 79:   1372.80   0.000897    4.53  0.000204  (-0.001757 -0.000210  0.014168)
 80:   1401.72   0.000116    0.59  0.000026  ( 0.004252  0.000491 -0.002750)
 81:   1402.89   0.000351    1.77  0.000078  ( 0.008691 -0.000333  0.001566)
 82:   1404.19   0.000100    0.50  0.000022  ( 0.004506 -0.000668  0.001179)
 83:   1409.23   0.000468    2.36  0.000104  (-0.001589 -0.010040 -0.000508)
 84:   1425.36   0.000101    0.51  0.000022  (-0.000701  0.000184  0.004646)
 85:   1445.03   0.011334   57.28  0.002448  (-0.003055 -0.048983 -0.006248)
 86:   1454.31   0.002038   10.30  0.000437  ( 0.006366  0.013140 -0.014971)
 87:   1457.03   0.002803   14.17  0.000600  ( 0.008711  0.000757 -0.022891)
 88:   1461.19   0.001156    5.84  0.000247  (-0.003349  0.002238  0.015184)
 89:   1461.79   0.000784    3.96  0.000167  ( 0.005303  0.004723 -0.010814)
 90:   1463.07   0.002321   11.73  0.000495  ( 0.005866 -0.002223 -0.021345)
 91:   1466.76   0.004484   22.66  0.000954  (-0.026618  0.008566 -0.013118)
 92:   1470.96   0.000369    1.87  0.000078  ( 0.002395  0.000232  0.008519)
 93:   1476.79   0.000478    2.42  0.000101  (-0.000906 -0.009889 -0.001557)
 94:   1538.25   0.001600    8.09  0.000325  ( 0.015947 -0.001104  0.008311)
 95:   1538.73   0.004412   22.30  0.000895  (-0.029814  0.001777 -0.001655)
 96:   1560.80   0.040450  204.42  0.008088  ( 0.006750  0.089528  0.005174)
 97:   1566.79   0.001397    7.06  0.000278  (-0.002517 -0.003426  0.016131)
 98:   1655.97   0.000143    0.72  0.000027  ( 0.000872  0.000553 -0.005086)
 99:   1704.91   0.000380    1.92  0.000070  (-0.000113 -0.008331 -0.000362)
100:   1706.52   0.000005    0.02  0.000001  ( 0.000489 -0.000741 -0.000311)
101:   1709.47   0.000058    0.29  0.000011  ( 0.000226 -0.000180  0.003236)
102:   1710.02   0.001901    9.61  0.000347  (-0.018389 -0.000643 -0.002891)
103:   3067.09   0.004273   21.59  0.000435  (-0.020631 -0.002568 -0.001598)
104:   3067.66   0.003761   19.01  0.000383  ( 0.018712  0.001897  0.005373)
105:   3068.55   0.001676    8.47  0.000170  (-0.008114  0.006397 -0.007980)
106:   3069.06   0.002140   10.81  0.000218  ( 0.012184 -0.007299 -0.003983)
107:   3156.64   0.001180    5.96  0.000117  ( 0.003943 -0.000184 -0.010055)
108:   3156.73   0.001603    8.10  0.000158  (-0.000880 -0.001409  0.012477)
109:   3157.69   0.000606    3.06  0.000060  ( 0.002424  0.003588 -0.006414)
110:   3157.90   0.000636    3.22  0.000063  (-0.000536 -0.002964 -0.007336)
111:   3182.60   0.002740   13.85  0.000269  ( 0.015149  0.005281  0.003367)
112:   3182.82   0.003998   20.20  0.000392  ( 0.006018 -0.018308  0.004532)
113:   3183.07   0.001921    9.71  0.000188  ( 0.012693 -0.003884 -0.003478)
114:   3183.38   0.002237   11.31  0.000219  ( 0.005894  0.012341  0.005682)
115:   3204.07   0.000028    0.14  0.000003  ( 0.000745  0.001481  0.000014)
116:   3204.90   0.000026    0.13  0.000003  ( 0.000586  0.001439  0.000330)
117:   3211.85   0.002665   13.47  0.000259  ( 0.015181 -0.000178  0.005334)
118:   3212.75   0.002701   13.65  0.000262  (-0.016196  0.000146  0.000222)
119:   3228.19   0.003696   18.68  0.000357  ( 0.001608  0.018518 -0.003432)
120:   3228.92   0.003048   15.40  0.000295  ( 0.000302  0.016204  0.005650)
121:   3285.60   0.000906    4.58  0.000086  (-0.000036 -0.009270 -0.000283)
122:   3308.43   0.000083    0.42  0.000008  (-0.000414  0.000207  0.002753)

--------------------------
THERMOCHEMISTRY AT 298.15K
--------------------------

Temperature         ... 298.15 K
Pressure            ... 1.00 atm
Total Mass          ... 276.38 AMU

Throughout the following assumptions are being made:
  (1) The electronic state is orbitally nondegenerate
  (2) There are no thermally accessible electronically excited states
  (3) Hindered rotations indicated by low frequency modes are not
      treated as such but are treated as vibrations and this may
      cause some error
  (4) All equations used are the standard statistical mechanics
      equations for an ideal gas
  (5) All vibrations are strictly harmonic

freq.      14.10  E(vib)   ...       0.57
freq.      20.08  E(vib)   ...       0.56
freq.      55.23  E(vib)   ...       0.52
freq.      63.64  E(vib)   ...       0.51
freq.      90.98  E(vib)   ...       0.47
freq.      93.71  E(vib)   ...       0.47
freq.     124.10  E(vib)   ...       0.43
freq.     138.57  E(vib)   ...       0.42
freq.     147.26  E(vib)   ...       0.41
freq.     156.82  E(vib)   ...       0.40
freq.     171.26  E(vib)   ...       0.38
freq.     202.52  E(vib)   ...       0.35
freq.     210.36  E(vib)   ...       0.34
freq.     238.69  E(vib)   ...       0.32
freq.     239.79  E(vib)   ...       0.31
freq.     286.12  E(vib)   ...       0.27
freq.     308.58  E(vib)   ...       0.26
freq.     336.26  E(vib)   ...       0.24
freq.     358.07  E(vib)   ...       0.22
freq.     362.29  E(vib)   ...       0.22
freq.     398.38  E(vib)   ...       0.20
freq.     437.37  E(vib)   ...       0.17
freq.     485.67  E(vib)   ...       0.15
freq.     494.82  E(vib)   ...       0.14
freq.     535.71  E(vib)   ...       0.12
freq.     536.37  E(vib)   ...       0.12
freq.     544.14  E(vib)   ...       0.12
freq.     548.60  E(vib)   ...       0.12
freq.     578.42  E(vib)   ...       0.11
freq.     596.49  E(vib)   ...       0.10
freq.     602.07  E(vib)   ...       0.10
freq.     629.68  E(vib)   ...       0.09
freq.     681.63  E(vib)   ...       0.08
freq.     686.01  E(vib)   ...       0.07
freq.     754.50  E(vib)   ...       0.06
freq.     770.84  E(vib)   ...       0.05
freq.     782.80  E(vib)   ...       0.05
freq.     788.23  E(vib)   ...       0.05
freq.     796.11  E(vib)   ...       0.05
freq.     800.42  E(vib)   ...       0.05
freq.     805.71  E(vib)   ...       0.05
freq.     881.03  E(vib)   ...       0.04
freq.     932.16  E(vib)   ...       0.03
freq.     938.37  E(vib)   ...       0.03
freq.     945.65  E(vib)   ...       0.03
freq.     945.68  E(vib)   ...       0.03
freq.     966.21  E(vib)   ...       0.03
freq.     974.05  E(vib)   ...       0.03
freq.    1009.55  E(vib)   ...       0.02
freq.    1010.02  E(vib)   ...       0.02
freq.    1026.30  E(vib)   ...       0.02
freq.    1028.33  E(vib)   ...       0.02
freq.    1059.17  E(vib)   ...       0.02
freq.    1060.68  E(vib)   ...       0.02
freq.    1061.96  E(vib)   ...       0.02
freq.    1064.63  E(vib)   ...       0.02
freq.    1064.87  E(vib)   ...       0.02
freq.    1065.13  E(vib)   ...       0.02
freq.    1092.94  E(vib)   ...       0.02
freq.    1097.78  E(vib)   ...       0.02
freq.    1103.65  E(vib)   ...       0.02
freq.    1130.95  E(vib)   ...       0.01
freq.    1143.35  E(vib)   ...       0.01
freq.    1180.03  E(vib)   ...       0.01
freq.    1180.22  E(vib)   ...       0.01
freq.    1267.94  E(vib)   ...       0.01
freq.    1279.40  E(vib)   ...       0.01
freq.    1281.65  E(vib)   ...       0.01
freq.    1300.97  E(vib)   ...       0.01
freq.    1304.39  E(vib)   ...       0.01
freq.    1327.07  E(vib)   ...       0.01
freq.    1335.72  E(vib)   ...       0.01
freq.    1337.89  E(vib)   ...       0.01
freq.    1372.80  E(vib)   ...       0.01
freq.    1401.72  E(vib)   ...       0.00
freq.    1402.89  E(vib)   ...       0.00
freq.    1404.19  E(vib)   ...       0.00
freq.    1409.23  E(vib)   ...       0.00
freq.    1425.36  E(vib)   ...       0.00
freq.    1445.03  E(vib)   ...       0.00
freq.    1454.31  E(vib)   ...       0.00
freq.    1457.03  E(vib)   ...       0.00
freq.    1461.19  E(vib)   ...       0.00
freq.    1461.79  E(vib)   ...       0.00
freq.    1463.07  E(vib)   ...       0.00
freq.    1466.76  E(vib)   ...       0.00
freq.    1470.96  E(vib)   ...       0.00
freq.    1476.79  E(vib)   ...       0.00
freq.    1538.25  E(vib)   ...       0.00
freq.    1538.73  E(vib)   ...       0.00
freq.    1560.80  E(vib)   ...       0.00
freq.    1566.79  E(vib)   ...       0.00
freq.    1655.97  E(vib)   ...       0.00
freq.    1704.91  E(vib)   ...       0.00
freq.    1706.52  E(vib)   ...       0.00
freq.    1709.47  E(vib)   ...       0.00
freq.    1710.02  E(vib)   ...       0.00
freq.    3067.09  E(vib)   ...       0.00
freq.    3067.66  E(vib)   ...       0.00
freq.    3068.55  E(vib)   ...       0.00
freq.    3069.06  E(vib)   ...       0.00
freq.    3156.64  E(vib)   ...       0.00
freq.    3156.73  E(vib)   ...       0.00
freq.    3157.69  E(vib)   ...       0.00
freq.    3157.90  E(vib)   ...       0.00
freq.    3182.60  E(vib)   ...       0.00
freq.    3182.82  E(vib)   ...       0.00
freq.    3183.07  E(vib)   ...       0.00
freq.    3183.38  E(vib)   ...       0.00
freq.    3204.07  E(vib)   ...       0.00
freq.    3204.90  E(vib)   ...       0.00
freq.    3211.85  E(vib)   ...       0.00
freq.    3212.75  E(vib)   ...       0.00
freq.    3228.19  E(vib)   ...       0.00
freq.    3228.92  E(vib)   ...       0.00
freq.    3285.60  E(vib)   ...       0.00
freq.    3308.43  E(vib)   ...       0.00

------------
INNER ENERGY
------------

The inner energy is: U= E(el) + E(ZPE) + E(vib) + E(rot) + E(trans)
    E(el)   - is the total energy from the electronic structure calculation
              = E(kin-el) + E(nuc-el) + E(el-el) + E(nuc-nuc)
    E(ZPE)  - the the zero temperature vibrational energy from the frequency calculation
    E(vib)  - the the finite temperature correction to E(ZPE) due to population
              of excited vibrational states
    E(rot)  - is the rotational thermal energy
    E(trans)- is the translational thermal energy

Summary of contributions to the inner energy U:
Electronic energy                ...   -844.73291408 Eh
Zero point energy                ...      0.34640138 Eh     217.37 kcal/mol
Thermal vibrational correction   ...      0.01649913 Eh      10.35 kcal/mol
Thermal rotational correction    ...      0.00141627 Eh       0.89 kcal/mol
Thermal translational correction ...      0.00141627 Eh       0.89 kcal/mol
-----------------------------------------------------------------------
Total thermal energy                   -844.36718102 Eh

Summary of corrections to the electronic energy:
(perhaps to be used in another calculation)
Total thermal correction                  0.01933167 Eh      12.13 kcal/mol

Rotational constants in cm-1:     0.023796     0.005931     0.005222

                             ****ORCA TERMINATED NORMALLY****
TOTAL RUN TIME: 0 days 1 hours 50 minutes 39 seconds 810 msec
