                         Program Version 5.0.4 -  RELEASE  -
|  1> ! SP wB97X D4 def2-SVP def2/J defgrid2
|  2> %maxcore 3000
|  3> %PAL NPROCS 4 END
|  4> * xyz 1 1
|  5> C 0.0286 0.7703 -1.2654
|  6> C -0.0286 -0.7703 -1.2654
|  7> N 0.0143 1.0983 0.1654
|  8> N -0.0143 -1.0983 0.1654
|  9> C 0.0 -0.0 0.8829
| 10> H -0.8373 1.2319 -1.7623
| 11> H -0.9484 -1.1648 -1.7231
| 12> H 0.8373 -1.2319 -1.7623
| 13> H 0.9484 1.1648 -1.7231
| 14> C 0.0451 2.4588 0.6579
| 15> C -0.0451 -2.4588 0.6579
| 16> H -0.8453 3.0034 0.3109
| 17> H -0.9465 -2.9685 0.2866
| 18> H 0.8453 -3.0034 0.3109
| 19> H 0.9465 2.9685 0.2866
| 20> H 0.06 2.4488 1.7552
| 21> H -0.06 -2.4488 1.7552
| 22> H 0.0 -0.0 1.9775
| 23> **                         ****END OF INPUT****

CARTESIAN COORDINATES (ANGSTROEM)
---------------------------------
  C      0.028600    0.770300   -1.265400
  C     -0.028600   -0.770300   -1.265400
  N      0.014300    1.098300    0.165400
  N     -0.014300   -1.098300    0.165400
  C      0.000000   -0.000000    0.882900
  H     -0.837300    1.231900   -1.762300
  H     -0.948400   -1.164800   -1.723100
  H      0.837300   -1.231900   -1.762300
  H      0.948400    1.164800   -1.723100
  C      0.045100    2.458800    0.657900
  C     -0.045100   -2.458800    0.657900
  H     -0.845300    3.003400    0.310900
  H     -0.946500   -2.968500    0.286600
  H      0.845300   -3.003400    0.310900
  H      0.946500    2.968500    0.286600
  H      0.060000    2.448800    1.755200
  H     -0.060000   -2.448800    1.755200
  H      0.000000   -0.000000    1.977500

 Total Charge           Charge          ....    1
 Multiplicity           Mult            ....    1
 Number of Electrons    NEL             ....   54
 Basis Dimension        Dim             ....  153

ORBITAL ENERGIES
----------------

  NO   OCC          E(Eh)            E(eV)
   0   2.0000     -14.643238      -398.4628
   1   2.0000     -14.643207      -398.4619
   2   2.0000     -10.563585      -287.4498
   3   2.0000     -10.491533      -285.4891
   4   2.0000     -10.491508      -285.4884
   5   2.0000     -10.475454      -285.0516
   6   2.0000     -10.475428      -285.0509
   7   2.0000      -1.347061       -36.6554
   8   2.0000      -1.235655       -33.6239
   9   2.0000      -1.085226       -29.5305
  10   2.0000      -1.054001       -28.6808
  11   2.0000      -0.983669       -26.7670
  12   2.0000      -0.942808       -25.6551
  13   2.0000      -0.892877       -24.2964
  14   2.0000      -0.823179       -22.3999
  15   2.0000      -0.811958       -22.0945
  16   2.0000      -0.769461       -20.9381
  17   2.0000      -0.736944       -20.0533
  18   2.0000      -0.732402       -19.9297
  19   2.0000      -0.723020       -19.6744
  20   2.0000      -0.708552       -19.2807
  21   2.0000      -0.693139       -18.8613
  22   2.0000      -0.665111       -18.0986
  23   2.0000      -0.655096       -17.8261
  24   2.0000      -0.653310       -17.7775
  25   2.0000      -0.639274       -17.3955
  26   2.0000      -0.509494       -13.8640
  27   0.0000      -0.102817        -2.7978
  28   0.0000      -0.016861        -0.4588
  29   0.0000      -0.003549        -0.0966
  30   0.0000       0.002372         0.0646
  31   0.0000       0.038514         1.0480

MULLIKEN ATOMIC CHARGES
-----------------------
   0 C :    0.099706
   1 C :    0.099706
   2 N :   -0.340904
   3 N :   -0.340903
   4 C :    0.283197
   5 H :    0.098454
   6 H :    0.098037
   7 H :    0.098454
   8 H :    0.098037
   9 C :    0.069403
  10 C :    0.069403
  11 H :    0.094635
  12 H :    0.093285
  13 H :    0.094635
  14 H :    0.093285
  15 H :    0.084486
  16 H :    0.084486
  17 H :    0.122595
Sum of atomic charges:    1.0000000

LOEWDIN ATOMIC CHARGES
----------------------
   0 C :    0.064870
   1 C :    0.064871
   2 N :    0.013670
   3 N :    0.013670
   4 C :    0.178673
   5 H :    0.051189
   6 H :    0.050402
   7 H :    0.051189
   8 H :    0.050402
   9 C :    0.047565
  10 C :    0.047565
  11 H :    0.049971
  12 H :    0.049806
  13 H :    0.049971
  14 H :    0.049806
  15 H :    0.050443
  16 H :    0.050442
  17 H :    0.065494

  Mayer bond orders larger than 0.100000
B(  0-C ,  1-C ) :   1.0852 B(  0-C ,  2-N ) :   0.9206 B(  0-C ,  5-H ) :   0.9546
B(  0-C ,  8-H ) :   0.9538 B(  1-C ,  3-N ) :   0.9206 B(  1-C ,  6-H ) :   0.9538
B(  1-C ,  7-H ) :   0.9546 B(  2-N ,  3-N ) :   0.1012 B(  2-N ,  4-C ) :   1.4145
B(  2-N ,  9-C ) :   0.9122 B(  3-N ,  4-C ) :   1.4145 B(  3-N , 10-C ) :   0.9122
B(  4-C , 17-H ) :   0.9643 B(  9-C , 11-H ) :   0.9718 B(  9-C , 14-H ) :   0.9714
B(  9-C , 15-H ) :   0.9729 B( 10-C , 12-H ) :   0.9714 B( 10-C , 13-H ) :   0.9718
B( 10-C , 16-H ) :   0.9729

Dispersion correction           -0.001840634
FINAL SINGLE POINT ENERGY      -306.137242201020

DIPOLE MOMENT
-------------
                                X             Y             Z
Electronic contribution:      0.00000       0.00000       0.56441
Nuclear contribution   :      0.00000       0.00000      -0.30521
                        -----------------------------------------
Total Dipole Moment    :      0.00000       0.00000       0.25920
                        -----------------------------------------
Magnitude (a.u.)       :      0.25920
Magnitude (Debye)      :      0.65884

Rotational constants in cm-1:     0.191095     0.066456     0.051247
Rotational constants in MHz :  5728.892481  1992.315030  1536.348209

                             ****ORCA TERMINATED NORMALLY****
TOTAL RUN TIME: 0 days 0 hours 0 minutes 27 seconds 752 msec
