                         Program Version 5.0.4 -  RELEASE  -
|  1> # ORCA 5.0.4 - 9.inp # write input file
|  2> # Basic Mode
|  3> #
|  4> ! Freq wB97X Def2-SVP D4 SlowConv TightSCF DEFGRID2 Def2/J RIJCOSX
|  5>
|  6>
|  7>
|  8> %maxcore 4500
|  9>
| 10> %geom
| 11> Maxiter 150
| 12> END
| 13>
| 14> * xyzfile 0 1 9.xyz
| 15>
| 16>                          ****END OF INPUT****

CARTESIAN COORDINATES (ANGSTROEM)
---------------------------------
  C     -0.008862    0.765292   -1.217162
  C      0.008859   -0.765292   -1.217162
  N     -0.132690    1.065254    0.211096
  N      0.132685   -1.065254    0.211096
  C     -0.000001    0.000000    1.018796
  H     -0.851715    1.189715   -1.786046
  H      0.851713   -1.189715   -1.786044
  C     -0.213820    2.433364    0.652684
  C      0.213822   -2.433364    0.652684
  H     -1.087216    2.939553    0.207562
  H      1.087224   -2.939546    0.207566
  H     -0.313224    2.449804    1.745711
  H      0.313221   -2.449804    1.745711
  H      0.688834    3.003999    0.369956
  H     -0.688827   -3.004006    0.369951
  H      0.922630    1.200517   -1.621472
  H     -0.922633   -1.200517   -1.621473

 Total Charge           Charge          ....    0
 Multiplicity           Mult            ....    1
 Number of Electrons    NEL             ....   54
 Basis Dimension        Dim             ....  148

ORBITAL ENERGIES
----------------

  NO   OCC          E(Eh)            E(eV)
   0   2.0000     -14.415983      -392.2788
   1   2.0000     -14.415973      -392.2786
   2   2.0000     -10.307619      -280.4846
   3   2.0000     -10.307595      -280.4839
   4   2.0000     -10.294906      -280.1386
   5   2.0000     -10.294872      -280.1377
   6   2.0000     -10.269423      -279.4452
   7   2.0000      -1.113603       -30.3027
   8   2.0000      -1.013923       -27.5902
   9   2.0000      -0.886129       -24.1128
  10   2.0000      -0.844938       -22.9919
  11   2.0000      -0.791301       -21.5324
  12   2.0000      -0.726253       -19.7624
  13   2.0000      -0.660819       -17.9818
  14   2.0000      -0.615159       -16.7393
  15   2.0000      -0.611065       -16.6279
  16   2.0000      -0.567901       -15.4534
  17   2.0000      -0.550622       -14.9832
  18   2.0000      -0.525790       -14.3075
  19   2.0000      -0.517713       -14.0877
  20   2.0000      -0.517469       -14.0810
  21   2.0000      -0.475440       -12.9374
  22   2.0000      -0.473960       -12.8971
  23   2.0000      -0.467174       -12.7124
  24   2.0000      -0.417630       -11.3643
  25   2.0000      -0.305202        -8.3050
  26   2.0000      -0.297028        -8.0826
  27   0.0000       0.133713         3.6385
  28   0.0000       0.137885         3.7520
  29   0.0000       0.158166         4.3039
  30   0.0000       0.194122         5.2823
  31   0.0000       0.198205         5.3934

MULLIKEN ATOMIC CHARGES
-----------------------
   0 C :    0.112967
   1 C :    0.112970
   2 N :   -0.351662
   3 N :   -0.351662
   4 C :   -0.066508
   5 H :    0.029443
   6 H :    0.029442
   7 C :    0.118101
   8 C :    0.118101
   9 H :    0.021108
  10 H :    0.021108
  11 H :    0.054314
  12 H :    0.054314
  13 H :    0.020686
  14 H :    0.020686
  15 H :    0.028296
  16 H :    0.028296
Sum of atomic charges:   -0.0000000

LOEWDIN ATOMIC CHARGES
----------------------
   0 C :    0.030983
   1 C :    0.030983
   2 N :   -0.062626
   3 N :   -0.062626
   4 C :   -0.201913
   5 H :    0.021128
   6 H :    0.021128
   7 C :    0.024872
   8 C :    0.024872
   9 H :    0.016005
  10 H :    0.016005
  11 H :    0.037031
  12 H :    0.037031
  13 H :    0.014974
  14 H :    0.014974
  15 H :    0.018589
  16 H :    0.018589

  Mayer bond orders larger than 0.100000
B(  0-C ,  1-C ) :   1.1004 B(  0-C ,  2-N ) :   0.9492 B(  0-C ,  5-H ) :   0.9566
B(  0-C , 15-H ) :   0.9487 B(  1-C ,  3-N ) :   0.9492 B(  1-C ,  6-H ) :   0.9566
B(  1-C , 16-H ) :   0.9487 B(  2-N ,  4-C ) :   1.2435 B(  2-N ,  7-C ) :   0.9829
B(  3-N ,  4-C ) :   1.2435 B(  3-N ,  8-C ) :   0.9829 B(  7-C ,  9-H ) :   0.9760
B(  7-C , 11-H ) :   0.9739 B(  7-C , 13-H ) :   0.9743 B(  8-C , 10-H ) :   0.9760
B(  8-C , 12-H ) :   0.9739 B(  8-C , 14-H ) :   0.9743

Dispersion correction           -0.001938064
FINAL SINGLE POINT ENERGY      -305.704741781976

DIPOLE MOMENT
-------------
                                X             Y             Z
Electronic contribution:     -0.00001      -0.00000       1.09545
Nuclear contribution   :      0.00001      -0.00000      -2.26230
                        -----------------------------------------
Total Dipole Moment    :      0.00000      -0.00000      -1.16685
                        -----------------------------------------
Magnitude (a.u.)       :      1.16685
Magnitude (Debye)      :      2.96591

Dispersion correction in the Hessian             ... Starting D4

VIBRATIONAL FREQUENCIES
-----------------------

Scaling factor for frequencies =  1.000000000  (already applied!)

   0:         0.00 cm**-1
   1:         0.00 cm**-1
   2:         0.00 cm**-1
   3:         0.00 cm**-1
   4:         0.00 cm**-1
   5:         0.00 cm**-1
   6:        78.33 cm**-1
   7:       117.21 cm**-1
   8:       155.56 cm**-1
   9:       207.52 cm**-1
  10:       242.31 cm**-1
  11:       294.96 cm**-1
  12:       422.98 cm**-1
  13:       465.92 cm**-1
  14:       627.69 cm**-1
  15:       658.53 cm**-1
  16:       846.97 cm**-1
  17:       938.45 cm**-1
  18:       963.32 cm**-1
  19:      1024.78 cm**-1
  20:      1092.28 cm**-1
  21:      1104.40 cm**-1
  22:      1104.67 cm**-1
  23:      1144.89 cm**-1
  24:      1165.76 cm**-1
  25:      1200.59 cm**-1
  26:      1236.35 cm**-1
  27:      1262.88 cm**-1
  28:      1319.71 cm**-1
  29:      1328.14 cm**-1
  30:      1353.56 cm**-1
  31:      1428.45 cm**-1
  32:      1436.24 cm**-1
  33:      1466.56 cm**-1
  34:      1466.68 cm**-1
  35:      1476.16 cm**-1
  36:      1486.39 cm**-1
  37:      1486.63 cm**-1
  38:      1511.37 cm**-1
  39:      1542.83 cm**-1
  40:      1572.76 cm**-1
  41:      3037.94 cm**-1
  42:      3040.38 cm**-1
  43:      3051.96 cm**-1
  44:      3060.69 cm**-1
  45:      3112.17 cm**-1
  46:      3115.82 cm**-1
  47:      3117.82 cm**-1
  48:      3126.94 cm**-1
  49:      3199.86 cm**-1
  50:      3199.92 cm**-1

IR SPECTRUM
-----------

 Mode   freq       eps      Int      T**2         TX        TY        TZ
       cm**-1   L/(mol*cm) km/mol    a.u.
----------------------------------------------------------------------------
  6:     78.33   0.000002    0.01  0.000010  ( 0.000001 -0.000001  0.003086)
  7:    117.21   0.000937    4.74  0.002495  ( 0.049275 -0.008171  0.000000)
  8:    155.56   0.000001    0.00  0.000002  (-0.000001 -0.000000 -0.001329)
  9:    207.52   0.001822    9.21  0.002740  ( 0.052165 -0.004374 -0.000000)
 10:    242.31   0.000013    0.07  0.000017  (-0.000000 -0.000001  0.004141)
 11:    294.96   0.000159    0.80  0.000168  (-0.000000 -0.000000 -0.012979)
 12:    422.98   0.001198    6.05  0.000884  ( 0.005418 -0.029232 -0.000000)
 13:    465.92   0.000516    2.61  0.000345  (-0.007389 -0.017049  0.000000)
 14:    627.69   0.000209    1.06  0.000104  (-0.000000  0.000000 -0.010202)
 15:    658.53   0.005566   28.13  0.002638  ( 0.002648 -0.051291  0.000000)
 16:    846.97   0.000164    0.83  0.000061  (-0.001988 -0.007525 -0.000000)
 17:    938.45   0.002020   10.21  0.000672  (-0.000000  0.000000  0.025914)
 18:    963.32   0.000096    0.49  0.000031  ( 0.003587  0.004270 -0.000000)
 19:   1024.78   0.000117    0.59  0.000035  ( 0.000000 -0.000000 -0.005956)
 20:   1092.28   0.000047    0.24  0.000013  ( 0.000000  0.000000  0.003669)
 21:   1104.40   0.000009    0.04  0.000002  (-0.000002  0.000016  0.001562)
 22:   1104.67   0.004120   20.82  0.001164  (-0.004984  0.033750 -0.000001)
 23:   1144.89   0.000294    1.48  0.000080  (-0.000263  0.008940  0.000000)
 24:   1165.76   0.000002    0.01  0.000000  (-0.000000  0.000001 -0.000664)
 25:   1200.59   0.001696    8.57  0.000441  ( 0.020973  0.000999 -0.000000)
 26:   1236.35   0.000183    0.92  0.000046  ( 0.000000 -0.000001  0.006787)
 27:   1262.88   0.008531   43.11  0.002108  (-0.008087  0.045195  0.000000)
 28:   1319.71   0.009181   46.40  0.002171  (-0.001476  0.046570 -0.000000)
 29:   1328.14   0.000051    0.26  0.000012  ( 0.000000 -0.000000  0.003477)
 30:   1353.56   0.001411    7.13  0.000325  ( 0.000000  0.000000  0.018035)
 31:   1428.45   0.006001   30.32  0.001311  ( 0.001586  0.036171  0.000000)
 32:   1436.24   0.000380    1.92  0.000083  (-0.000000  0.000000 -0.009087)
 33:   1466.56   0.000011    0.06  0.000002  (-0.000013  0.000009  0.001550)
 34:   1466.68   0.006314   31.91  0.001343  (-0.030884  0.019736 -0.000001)
 35:   1476.16   0.018296   92.46  0.003868  ( 0.000706  0.062188  0.000000)
 36:   1486.39   0.000358    1.81  0.000075  (-0.001085 -0.008607 -0.000005)
 37:   1486.63   0.003323   16.80  0.000698  (-0.000000 -0.000002  0.026413)
 38:   1511.37   0.000001    0.01  0.000000  (-0.000000  0.000000 -0.000517)
 39:   1542.83   0.000661    3.34  0.000134  ( 0.000000  0.000001 -0.011566)
 40:   1572.76   0.044714  225.97  0.008872  (-0.004067  0.094103  0.000000)
 41:   3037.94   0.031404  158.70  0.003226  (-0.002333 -0.056749  0.000002)
 42:   3040.38   0.000092    0.47  0.000009  (-0.000001 -0.000036 -0.003079)
 43:   3051.96   0.009996   50.52  0.001022  ( 0.013037  0.029191  0.000004)
 44:   3060.69   0.008411   42.51  0.000858  ( 0.000001  0.000004 -0.029285)
 45:   3112.17   0.001552    7.85  0.000156  (-0.000005  0.000001  0.012477)
 46:   3115.82   0.019590   99.00  0.001962  ( 0.044184 -0.003136  0.000004)
 47:   3117.82   0.000161    0.81  0.000016  (-0.000025  0.000001  0.004009)
 48:   3126.94   0.004682   23.66  0.000467  ( 0.021343 -0.003418 -0.000001)
 49:   3199.86   0.000234    1.18  0.000023  (-0.000309 -0.004756  0.000279)
 50:   3199.92   0.001245    6.29  0.000121  ( 0.000008  0.000120  0.011017)

--------------------------
THERMOCHEMISTRY AT 298.15K
--------------------------

Temperature         ... 298.15 K
Pressure            ... 1.00 atm
Total Mass          ... 98.15 AMU

Throughout the following assumptions are being made:
  (1) The electronic state is orbitally nondegenerate
  (2) There are no thermally accessible electronically excited states
  (3) Hindered rotations indicated by low frequency modes are not
      treated as such but are treated as vibrations and this may
      cause some error
  (4) All equations used are the standard statistical mechanics
      equations for an ideal gas
  (5) All vibrations are strictly harmonic

freq.      78.33  E(vib)   ...       0.49
freq.     117.21  E(vib)   ...       0.44
freq.     155.56  E(vib)   ...       0.40
freq.     207.52  E(vib)   ...       0.34
freq.     242.31  E(vib)   ...       0.31
freq.     294.96  E(vib)   ...       0.27
freq.     422.98  E(vib)   ...       0.18
freq.     465.92  E(vib)   ...       0.16
freq.     627.69  E(vib)   ...       0.09
freq.     658.53  E(vib)   ...       0.08
freq.     846.97  E(vib)   ...       0.04
freq.     938.45  E(vib)   ...       0.03
freq.     963.32  E(vib)   ...       0.03
freq.    1024.78  E(vib)   ...       0.02
freq.    1092.28  E(vib)   ...       0.02
freq.    1104.40  E(vib)   ...       0.02
freq.    1104.67  E(vib)   ...       0.02
freq.    1144.89  E(vib)   ...       0.01
freq.    1165.76  E(vib)   ...       0.01
freq.    1200.59  E(vib)   ...       0.01
freq.    1236.35  E(vib)   ...       0.01
freq.    1262.88  E(vib)   ...       0.01
freq.    1319.71  E(vib)   ...       0.01
freq.    1328.14  E(vib)   ...       0.01
freq.    1353.56  E(vib)   ...       0.01
freq.    1428.45  E(vib)   ...       0.00
freq.    1436.24  E(vib)   ...       0.00
freq.    1466.56  E(vib)   ...       0.00
freq.    1466.68  E(vib)   ...       0.00
freq.    1476.16  E(vib)   ...       0.00
freq.    1486.39  E(vib)   ...       0.00
freq.    1486.63  E(vib)   ...       0.00
freq.    1511.37  E(vib)   ...       0.00
freq.    1542.83  E(vib)   ...       0.00
freq.    1572.76  E(vib)   ...       0.00
freq.    3037.94  E(vib)   ...       0.00
freq.    3040.38  E(vib)   ...       0.00
freq.    3051.96  E(vib)   ...       0.00
freq.    3060.69  E(vib)   ...       0.00
freq.    3112.17  E(vib)   ...       0.00
freq.    3115.82  E(vib)   ...       0.00
freq.    3117.82  E(vib)   ...       0.00
freq.    3126.94  E(vib)   ...       0.00
freq.    3199.86  E(vib)   ...       0.00
freq.    3199.92  E(vib)   ...       0.00

------------
INNER ENERGY
------------

The inner energy is: U= E(el) + E(ZPE) + E(vib) + E(rot) + E(trans)
    E(el)   - is the total energy from the electronic structure calculation
              = E(kin-el) + E(nuc-el) + E(el-el) + E(nuc-nuc)
    E(ZPE)  - the the zero temperature vibrational energy from the frequency calculation
    E(vib)  - the the finite temperature correction to E(ZPE) due to population
              of excited vibrational states
    E(rot)  - is the rotational thermal energy
    E(trans)- is the translational thermal energy

Summary of contributions to the inner energy U:
Electronic energy                ...   -305.70474178 Eh
Zero point energy                ...      0.15103179 Eh      94.77 kcal/mol
Thermal vibrational correction   ...      0.00482945 Eh       3.03 kcal/mol
Thermal rotational correction    ...      0.00141627 Eh       0.89 kcal/mol
Thermal translational correction ...      0.00141627 Eh       0.89 kcal/mol
-----------------------------------------------------------------------
Total thermal energy                   -305.54604800 Eh

Summary of corrections to the electronic energy:
(perhaps to be used in another calculation)
Total thermal correction                  0.00766199 Eh       4.81 kcal/mol
Non-thermal (ZPE) correction              0.15103179 Eh      94.77 kcal/mol
-----------------------------------------------------------------------
Total correction                          0.15869378 Eh      99.58 kcal/mol

--------
ENTHALPY
--------

The enthalpy is H = U + kB*T
                kB is Boltzmann's constant
Total free energy                 ...   -305.54604800 Eh
Thermal Enthalpy correction       ...      0.00094421 Eh       0.59 kcal/mol
-----------------------------------------------------------------------
Total Enthalpy                    ...   -305.54510379 Eh

Note: Rotational entropy computed according to Herzberg
Infrared and Raman Spectra, Chapter V,1, Van Nostrand Reinhold, 1945
Point Group:  C2, Symmetry Number:   2
Rotational constants in cm-1:     0.200019     0.067463     0.052511

Vibrational entropy computed according to the QRRHO of S. Grimme
Chem.Eur.J. 2012 18 9955

-------
ENTROPY
-------

The entropy contributions are T*S = T*(S(el)+S(vib)+S(rot)+S(trans))
     S(el)   - electronic entropy
     S(vib)  - vibrational entropy
     S(rot)  - rotational entropy
     S(trans)- translational entropy
The entropies will be listed as multiplied by the temperature to get
units of energy

Electronic entropy                ...      0.00000000 Eh      0.00 kcal/mol
Vibrational entropy               ...      0.00839980 Eh      5.27 kcal/mol
Rotational entropy                ...      0.01228007 Eh      7.71 kcal/mol
Translational entropy             ...      0.01884478 Eh     11.83 kcal/mol
-----------------------------------------------------------------------
Final entropy term                ...      0.03952465 Eh     24.80 kcal/mol

In case the symmetry of your molecule has not been determined correctly
or in case you have a reason to use a different symmetry number we print
out the resulting rotational entropy values for sn=1,12 :
 --------------------------------------------------------
|  sn= 1 | S(rot)=       0.01293453 Eh      8.12 kcal/mol|
|  sn= 2 | S(rot)=       0.01228007 Eh      7.71 kcal/mol|
|  sn= 3 | S(rot)=       0.01189724 Eh      7.47 kcal/mol|
|  sn= 4 | S(rot)=       0.01162561 Eh      7.30 kcal/mol|
|  sn= 5 | S(rot)=       0.01141492 Eh      7.16 kcal/mol|
|  sn= 6 | S(rot)=       0.01124278 Eh      7.05 kcal/mol|
|  sn= 7 | S(rot)=       0.01109723 Eh      6.96 kcal/mol|
|  sn= 8 | S(rot)=       0.01097116 Eh      6.88 kcal/mol|
|  sn= 9 | S(rot)=       0.01085995 Eh      6.81 kcal/mol|
|  sn=10 | S(rot)=       0.01076047 Eh      6.75 kcal/mol|
|  sn=11 | S(rot)=       0.01067048 Eh      6.70 kcal/mol|
|  sn=12 | S(rot)=       0.01058832 Eh      6.64 kcal/mol|
 --------------------------------------------------------

-------------------
GIBBS FREE ENERGY
-------------------

The Gibbs free energy is G = H - T*S

Total enthalpy                    ...   -305.54510379 Eh
Total entropy correction          ...     -0.03952465 Eh    -24.80 kcal/mol

                             ****ORCA TERMINATED NORMALLY****
TOTAL RUN TIME: 0 days 0 hours 9 minutes 8 seconds 596 msec
