                         Program Version 5.0.4 -  RELEASE  -
|  1> # ORCA 5.0.4 - /users/bwb16179/postgrad/2024_02/lysine/DFT/lys_deprot_aq.inp # write input file
|  2> # Basic Mode
|  3> #
|  4> ! Opt Freq wB97X Def2-SVP D4 SlowConv TightSCF Defgrid2 Def2/J RIJCOSX CPCM(Water)
|  5>
|  6>
|  7>
|  8> %maxcore 4500
|  9>
| 10> %geom
| 11> Maxiter 150
| 12> END
| 13>
| 14> * xyzfile 0 1 lys_deprot_aq.xyz
| 15>
| 16>                          ****END OF INPUT****
 Total Charge           Charge          ....    0
 Multiplicity           Mult            ....    1
 Number of Electrons    NEL             ....   34
Dispersion correction           -0.000932562
FINAL SINGLE POINT ENERGY      -174.316587580134
Dispersion correction            ... Starting D4
Dispersion correction           -0.000931019
FINAL SINGLE POINT ENERGY      -174.319191878768
Dispersion correction            ... Starting D4
Dispersion correction           -0.000930826
FINAL SINGLE POINT ENERGY      -174.319462409386
Dispersion correction            ... Starting D4
Dispersion correction           -0.000931056
FINAL SINGLE POINT ENERGY      -174.319550112878
Dispersion correction            ... Starting D4
Dispersion correction           -0.000931114
FINAL SINGLE POINT ENERGY      -174.319554205993
Dispersion correction            ... Starting D4
                    ***********************HURRAY********************

CARTESIAN COORDINATES (ANGSTROEM)
---------------------------------
  C     -1.664750   -1.405345    0.033109
  C     -0.892129   -0.096614    0.134106
  H     -1.006938   -2.275172    0.182225
  H     -2.139677   -1.510852   -0.956283
  H     -2.463742   -1.457624    0.790892
  C     -1.769995    1.131826   -0.065715
  H     -0.080372   -0.069575   -0.613243
  H     -0.401549   -0.026759    1.122137
  N     -0.981588    2.357371   -0.008456
  H     -2.597026    1.101941    0.675217
  H     -2.249135    1.070737   -1.059202
  H     -0.609233    2.469166    0.935177
  H     -1.590816    3.162549   -0.146803

 Multiplicity           Mult            ....    1
 Number of Electrons    NEL             ....   34
 Basis Dimension        Dim             ....  101

ORBITAL ENERGIES
----------------

  NO   OCC          E(Eh)            E(eV)
   0   2.0000     -14.375584      -391.1795
   1   2.0000     -10.281386      -279.7707
   2   2.0000     -10.258462      -279.1470
   3   2.0000     -10.257057      -279.1087
   4   2.0000      -0.993729       -27.0407
   5   2.0000      -0.884733       -24.0748
   6   2.0000      -0.769770       -20.9465
   7   2.0000      -0.692664       -18.8483
   8   2.0000      -0.589780       -16.0487
   9   2.0000      -0.567430       -15.4406
  10   2.0000      -0.546483       -14.8706
  11   2.0000      -0.508253       -13.8303
  12   2.0000      -0.476089       -12.9550
  13   2.0000      -0.453761       -12.3475
  14   2.0000      -0.431417       -11.7394
  15   2.0000      -0.422519       -11.4973
  16   2.0000      -0.339029        -9.2255
  17   0.0000       0.153690         4.1821
  18   0.0000       0.171261         4.6602
  19   0.0000       0.192586         5.2405
  20   0.0000       0.202549         5.5116
  21   0.0000       0.236191         6.4271

MULLIKEN ATOMIC CHARGES
-----------------------
   0 C :   -0.056661
   1 C :   -0.084191
   2 H :    0.036239
   3 H :    0.029650
   4 H :    0.029554
   5 C :    0.053115
   6 H :    0.015527
   7 H :    0.022172
   8 N :   -0.297602
   9 H :    0.004431
  10 H :    0.015208
  11 H :    0.114646
  12 H :    0.117912
Sum of atomic charges:    0.0000000

LOEWDIN ATOMIC CHARGES
----------------------
   0 C :   -0.067741
   1 C :   -0.056407
   2 H :    0.028295
   3 H :    0.025379
   4 H :    0.025090
   5 C :    0.010675
   6 H :    0.019418
   7 H :    0.021747
   8 N :   -0.152981
   9 H :    0.002385
  10 H :    0.016975
  11 H :    0.062115
  12 H :    0.065048

  Mayer bond orders larger than 0.100000
B(  0-C ,  1-C ) :   1.0819 B(  0-C ,  2-H ) :   0.9739 B(  0-C ,  3-H ) :   0.9758
B(  0-C ,  4-H ) :   0.9747 B(  1-C ,  5-C ) :   1.0620 B(  1-C ,  6-H ) :   0.9522
B(  1-C ,  7-H ) :   0.9566 B(  5-C ,  8-N ) :   1.0596 B(  5-C ,  9-H ) :   0.9551
B(  5-C , 10-H ) :   0.9576 B(  8-N , 11-H ) :   0.9712 B(  8-N , 12-H ) :   0.9670

Dispersion correction           -0.000931145
FINAL SINGLE POINT ENERGY      -174.319556410368

DIPOLE MOMENT
-------------
                                X             Y             Z
Electronic contribution:      0.58795       2.22206      -0.09867
Nuclear contribution   :     -1.04519      -2.11422       0.58123
                        -----------------------------------------
Total Dipole Moment    :     -0.45723       0.10783       0.48257
                        -----------------------------------------
Magnitude (a.u.)       :      0.67347
Magnitude (Debye)      :      1.71183

Dispersion correction in the Hessian             ... Starting D4

VIBRATIONAL FREQUENCIES
-----------------------

Scaling factor for frequencies =  1.000000000  (already applied!)

   0:         0.00 cm**-1
   1:         0.00 cm**-1
   2:         0.00 cm**-1
   3:         0.00 cm**-1
   4:         0.00 cm**-1
   5:         0.00 cm**-1
   6:       137.45 cm**-1
   7:       222.67 cm**-1
   8:       258.11 cm**-1
   9:       300.72 cm**-1
  10:       466.40 cm**-1
  11:       759.76 cm**-1
  12:       863.32 cm**-1
  13:       889.50 cm**-1
  14:       929.16 cm**-1
  15:      1048.19 cm**-1
  16:      1073.62 cm**-1
  17:      1131.88 cm**-1
  18:      1167.70 cm**-1
  19:      1233.30 cm**-1
  20:      1285.53 cm**-1
  21:      1320.80 cm**-1
  22:      1347.09 cm**-1
  23:      1400.51 cm**-1
  24:      1442.19 cm**-1
  25:      1456.04 cm**-1
  26:      1457.78 cm**-1
  27:      1475.30 cm**-1
  28:      1493.38 cm**-1
  29:      1625.59 cm**-1
  30:      2991.16 cm**-1
  31:      3053.74 cm**-1
  32:      3058.30 cm**-1
  33:      3083.59 cm**-1
  34:      3112.17 cm**-1
  35:      3147.91 cm**-1
  36:      3159.67 cm**-1
  37:      3543.22 cm**-1
  38:      3618.84 cm**-1

IR SPECTRUM
-----------

 Mode   freq       eps      Int      T**2         TX        TY        TZ
       cm**-1   L/(mol*cm) km/mol    a.u.
----------------------------------------------------------------------------
  6:    137.45   0.000738    3.73  0.001675  (-0.028136 -0.013529 -0.026460)
  7:    222.67   0.000943    4.77  0.001322  (-0.019206  0.019067 -0.024278)
  8:    258.11   0.004765   24.08  0.005761  (-0.047721  0.031162 -0.050128)
  9:    300.72   0.009062   45.80  0.009404  ( 0.044422 -0.062250  0.059631)
 10:    466.40   0.002330   11.78  0.001559  (-0.002159  0.034815 -0.018500)
 11:    759.76   0.001694    8.56  0.000696  ( 0.015893 -0.000896 -0.021035)
 12:    863.32   0.015059   76.10  0.005443  ( 0.059203  0.036717 -0.024297)
 13:    889.50   0.001072    5.42  0.000376  ( 0.008360 -0.013156  0.011538)
 14:    929.16   0.026001  131.40  0.008733  (-0.073900 -0.032765  0.046882)
 15:   1048.19   0.000589    2.98  0.000175  (-0.007350  0.011009  0.000246)
 16:   1073.62   0.000655    3.31  0.000190  ( 0.009348  0.009656 -0.003109)
 17:   1131.88   0.004805   24.28  0.001325  ( 0.018449  0.031210 -0.003213)
 18:   1167.70   0.002866   14.48  0.000766  (-0.020457 -0.006544  0.017452)
 19:   1233.30   0.000249    1.26  0.000063  ( 0.002334  0.007314 -0.002000)
 20:   1285.53   0.000490    2.48  0.000119  (-0.003042  0.008991  0.005382)
 21:   1320.80   0.000906    4.58  0.000214  (-0.004110  0.011967  0.007349)
 22:   1347.09   0.000142    0.72  0.000033  ( 0.002837  0.000178  0.004970)
 23:   1400.51   0.001078    5.45  0.000240  ( 0.005211  0.014590 -0.000403)
 24:   1442.19   0.001454    7.35  0.000315  (-0.008265 -0.014641 -0.005648)
 25:   1456.04   0.000878    4.44  0.000188  ( 0.002352  0.010872 -0.008032)
 26:   1457.78   0.001611    8.14  0.000345  (-0.003083  0.004489  0.017752)
 27:   1475.30   0.001310    6.62  0.000277  (-0.012105  0.011416  0.000387)
 28:   1493.38   0.001070    5.41  0.000224  ( 0.006760 -0.013051  0.002755)
 29:   1625.59   0.008505   42.98  0.001633  ( 0.001558 -0.032131 -0.024451)
 30:   2991.16   0.024548  124.05  0.002561  ( 0.046748  0.007869 -0.017713)
 31:   3053.74   0.014082   71.17  0.001439  ( 0.032133  0.018786  0.007323)
 32:   3058.30   0.002552   12.90  0.000260  (-0.010615  0.011046 -0.005071)
 33:   3083.59   0.009145   46.22  0.000925  (-0.012463 -0.001488 -0.027712)
 34:   3112.17   0.011397   57.60  0.001143  (-0.007340  0.001266  0.032975)
 35:   3147.91   0.012123   61.27  0.001202  ( 0.006623 -0.001269 -0.034006)
 36:   3159.67   0.007253   36.65  0.000716  ( 0.022106 -0.014425  0.004424)
 37:   3543.22   0.000581    2.94  0.000051  ( 0.002895 -0.003778 -0.005339)
 38:   3618.84   0.001464    7.40  0.000126  (-0.007258  0.005845 -0.006278)

--------------------------
THERMOCHEMISTRY AT 298.15K
--------------------------

Temperature         ... 298.15 K
Pressure            ... 1.00 atm
Total Mass          ... 59.11 AMU

Throughout the following assumptions are being made:
  (1) The electronic state is orbitally nondegenerate
  (2) There are no thermally accessible electronically excited states
  (3) Hindered rotations indicated by low frequency modes are not
      treated as such but are treated as vibrations and this may
      cause some error
  (4) All equations used are the standard statistical mechanics
      equations for an ideal gas
  (5) All vibrations are strictly harmonic

freq.     137.45  E(vib)   ...       0.42
freq.     222.67  E(vib)   ...       0.33
freq.     258.11  E(vib)   ...       0.30
freq.     300.72  E(vib)   ...       0.26
freq.     466.40  E(vib)   ...       0.16
freq.     759.76  E(vib)   ...       0.06
freq.     863.32  E(vib)   ...       0.04
freq.     889.50  E(vib)   ...       0.04
freq.     929.16  E(vib)   ...       0.03
freq.    1048.19  E(vib)   ...       0.02
freq.    1073.62  E(vib)   ...       0.02
freq.    1131.88  E(vib)   ...       0.01
freq.    1167.70  E(vib)   ...       0.01
freq.    1233.30  E(vib)   ...       0.01
freq.    1285.53  E(vib)   ...       0.01
freq.    1320.80  E(vib)   ...       0.01
freq.    1347.09  E(vib)   ...       0.01
freq.    1400.51  E(vib)   ...       0.00
freq.    1442.19  E(vib)   ...       0.00
freq.    1456.04  E(vib)   ...       0.00
freq.    1457.78  E(vib)   ...       0.00
freq.    1475.30  E(vib)   ...       0.00
freq.    1493.38  E(vib)   ...       0.00
freq.    1625.59  E(vib)   ...       0.00
freq.    2991.16  E(vib)   ...       0.00
freq.    3053.74  E(vib)   ...       0.00
freq.    3058.30  E(vib)   ...       0.00
freq.    3083.59  E(vib)   ...       0.00
freq.    3112.17  E(vib)   ...       0.00
freq.    3147.91  E(vib)   ...       0.00
freq.    3159.67  E(vib)   ...       0.00
freq.    3543.22  E(vib)   ...       0.00
freq.    3618.84  E(vib)   ...       0.00

------------
INNER ENERGY
------------

The inner energy is: U= E(el) + E(ZPE) + E(vib) + E(rot) + E(trans)
    E(el)   - is the total energy from the electronic structure calculation
              = E(kin-el) + E(nuc-el) + E(el-el) + E(nuc-nuc)
    E(ZPE)  - the the zero temperature vibrational energy from the frequency calculation
    E(vib)  - the the finite temperature correction to E(ZPE) due to population
              of excited vibrational states
    E(rot)  - is the rotational thermal energy
    E(trans)- is the translational thermal energy

Summary of contributions to the inner energy U:
Electronic energy                ...   -174.31955641 Eh
Zero point energy                ...      0.12200635 Eh      76.56 kcal/mol
Thermal vibrational correction   ...      0.00277774 Eh       1.74 kcal/mol
Thermal rotational correction    ...      0.00141627 Eh       0.89 kcal/mol
Thermal translational correction ...      0.00141627 Eh       0.89 kcal/mol
-----------------------------------------------------------------------
Total thermal energy                   -174.19193978 Eh

Summary of corrections to the electronic energy:
(perhaps to be used in another calculation)
Total thermal correction                  0.00561028 Eh       3.52 kcal/mol
Non-thermal (ZPE) correction              0.12200635 Eh      76.56 kcal/mol
-----------------------------------------------------------------------
Total correction                          0.12761663 Eh      80.08 kcal/mol

--------
ENTHALPY
--------

The enthalpy is H = U + kB*T
                kB is Boltzmann's constant
Total free energy                 ...   -174.19193978 Eh
Thermal Enthalpy correction       ...      0.00094421 Eh       0.59 kcal/mol
-----------------------------------------------------------------------
Total Enthalpy                    ...   -174.19099557 Eh

Note: Only C1 symmetry has been detected, increase convergence thresholds
      if your molecule has a higher symmetry. Symmetry factor of 1.0 is
      used for the rotational entropy correction.

Note: Rotational entropy computed according to Herzberg
Infrared and Raman Spectra, Chapter V,1, Van Nostrand Reinhold, 1945
Point Group:  C1, Symmetry Number:   1
Rotational constants in cm-1:     0.841993     0.124326     0.116442

Vibrational entropy computed according to the QRRHO of S. Grimme
Chem.Eur.J. 2012 18 9955

-------
ENTROPY
-------

The entropy contributions are T*S = T*(S(el)+S(vib)+S(rot)+S(trans))
     S(el)   - electronic entropy
     S(vib)  - vibrational entropy
     S(rot)  - rotational entropy
     S(trans)- translational entropy
The entropies will be listed as multiplied by the temperature to get
units of energy

Electronic entropy                ...      0.00000000 Eh      0.00 kcal/mol
Vibrational entropy               ...      0.00460423 Eh      2.89 kcal/mol
Rotational entropy                ...      0.01159140 Eh      7.27 kcal/mol
Translational entropy             ...      0.01812666 Eh     11.37 kcal/mol
-----------------------------------------------------------------------
Final entropy term                ...      0.03432229 Eh     21.54 kcal/mol

In case the symmetry of your molecule has not been determined correctly
or in case you have a reason to use a different symmetry number we print
out the resulting rotational entropy values for sn=1,12 :
 --------------------------------------------------------
|  sn= 1 | S(rot)=       0.01159140 Eh      7.27 kcal/mol|
|  sn= 2 | S(rot)=       0.01093695 Eh      6.86 kcal/mol|
|  sn= 3 | S(rot)=       0.01055412 Eh      6.62 kcal/mol|
|  sn= 4 | S(rot)=       0.01028249 Eh      6.45 kcal/mol|
|  sn= 5 | S(rot)=       0.01007180 Eh      6.32 kcal/mol|
|  sn= 6 | S(rot)=       0.00989966 Eh      6.21 kcal/mol|
|  sn= 7 | S(rot)=       0.00975411 Eh      6.12 kcal/mol|
|  sn= 8 | S(rot)=       0.00962804 Eh      6.04 kcal/mol|
|  sn= 9 | S(rot)=       0.00951683 Eh      5.97 kcal/mol|
|  sn=10 | S(rot)=       0.00941735 Eh      5.91 kcal/mol|
|  sn=11 | S(rot)=       0.00932736 Eh      5.85 kcal/mol|
|  sn=12 | S(rot)=       0.00924520 Eh      5.80 kcal/mol|
 --------------------------------------------------------

-------------------
GIBBS FREE ENERGY
-------------------

The Gibbs free energy is G = H - T*S

Total enthalpy                    ...   -174.19099557 Eh
Total entropy correction          ...     -0.03432229 Eh    -21.54 kcal/mol
-----------------------------------------------------------------------
Final Gibbs free energy         ...   -174.22531787 Eh

For completeness - the Gibbs free energy minus the electronic energy
G-E(el)                           ...      0.09423854 Eh     59.14 kcal/mol

                             ****ORCA TERMINATED NORMALLY****
TOTAL RUN TIME: 0 days 0 hours 7 minutes 15 seconds 420 msec
