                         Program Version 5.0.4 -  RELEASE  -
|  1> # ORCA 5.0.4 - /users/bwb16179/postgrad/2024_06/pKa_Reviewer_Comments/Gas_Z=1/4_prot.inp # write input file
|  2> # Basic Mode
|  3> #
|  4> ! Opt Freq wB97X Def2-TZVP D4 SlowConv TightSCF Defgrid2 Def2/J RIJCOSX
|  5>
|  6> %PAL NPROCS 16 END
|  7>
|  8> %maxcore 4500
|  9>
| 10> %geom
| 11> Maxiter 150
| 12> END
| 13>
| 14> * xyzfile 1 1 butylamine.xyz
| 15>
| 16>                          ****END OF INPUT****
 Total Charge           Charge          ....    1
 Multiplicity           Mult            ....    1
 Number of Electrons    NEL             ....   42
Dispersion correction           -0.001258279
FINAL SINGLE POINT ENERGY      -214.184387994615
Dispersion correction            ... Starting D4
Dispersion correction           -0.001257167
FINAL SINGLE POINT ENERGY      -214.189701862336
Dispersion correction            ... Starting D4
Dispersion correction           -0.001256537
FINAL SINGLE POINT ENERGY      -214.190206406610
Dispersion correction            ... Starting D4
Dispersion correction           -0.001256172
FINAL SINGLE POINT ENERGY      -214.190372663908
Dispersion correction            ... Starting D4
Dispersion correction           -0.001256175
FINAL SINGLE POINT ENERGY      -214.190376850075
Dispersion correction            ... Starting D4
                    ***********************HURRAY********************

CARTESIAN COORDINATES (ANGSTROEM)
---------------------------------
  C     -3.917483    0.953689   -0.049736
  C     -2.729029    0.007558    0.035415
  H     -4.854790    0.405020    0.032431
  H     -3.928461    1.489278   -1.001038
  H     -3.893031    1.692367    0.753887
  C     -1.400099    0.749020   -0.089033
  H     -2.797916   -0.744881   -0.755713
  H     -2.752976   -0.534149    0.985591
  C     -0.229746   -0.207632   -0.007058
  H     -1.324466    1.497840    0.707544
  H     -1.373043    1.287269   -1.043315
  N      1.076889    0.540316   -0.141588
  H     -0.245402   -0.945762   -0.808937
  H     -0.189156   -0.729683    0.948922
  H      1.116754    1.038955   -1.032063
  H      1.882989   -0.084064   -0.094809
  H      1.174067    1.235178    0.600551

 Multiplicity           Mult            ....    1
 Number of Electrons    NEL             ....   42
 Basis Dimension        Dim             ....  227

ORBITAL ENERGIES
----------------

  NO   OCC          E(Eh)            E(eV)
   0   2.0000     -14.720325      -400.5604
   1   2.0000     -10.501369      -285.7568
   2   2.0000     -10.427543      -283.7479
   3   2.0000     -10.394126      -282.8386
   4   2.0000     -10.360723      -281.9296
   5   2.0000      -1.337101       -36.3844
   6   2.0000      -1.105717       -30.0881
   7   2.0000      -1.022349       -27.8195
   8   2.0000      -0.941874       -25.6297
   9   2.0000      -0.905139       -24.6301
  10   2.0000      -0.896192       -24.3866
  11   2.0000      -0.848481       -23.0883
  12   2.0000      -0.791587       -21.5402
  13   2.0000      -0.759006       -20.6536
  14   2.0000      -0.696577       -18.9548
  15   2.0000      -0.688294       -18.7294
  16   2.0000      -0.651265       -17.7218
  17   2.0000      -0.625373       -17.0173
  18   2.0000      -0.592485       -16.1223
  19   2.0000      -0.578482       -15.7413
  20   2.0000      -0.569762       -15.5040
  21   0.0000      -0.097139        -2.6433
  22   0.0000      -0.034331        -0.9342
  23   0.0000      -0.032936        -0.8962
  24   0.0000      -0.023068        -0.6277
  25   0.0000       0.015132         0.4118

MULLIKEN ATOMIC CHARGES
-----------------------
   0 C :   -0.359515
   1 C :   -0.206469
   2 H :    0.154565
   3 H :    0.125460
   4 H :    0.126242
   5 C :   -0.245092
   6 H :    0.122731
   7 H :    0.123238
   8 C :   -0.191918
   9 H :    0.135252
  10 H :    0.134299
  11 N :   -0.297395
  12 H :    0.192757
  13 H :    0.193074
  14 H :    0.328074
  15 H :    0.336320
  16 H :    0.328377
Sum of atomic charges:    1.0000000

LOEWDIN ATOMIC CHARGES
----------------------
   0 C :   -0.292931
   1 C :   -0.281371
   2 H :    0.132434
   3 H :    0.124735
   4 H :    0.124861
   5 C :   -0.274044
   6 H :    0.142507
   7 H :    0.142576
   8 C :   -0.239317
   9 H :    0.145978
  10 H :    0.145860
  11 N :    0.172001
  12 H :    0.152398
  13 H :    0.152377
  14 H :    0.217528
  15 H :    0.216871
  16 H :    0.217537

  Mayer bond orders larger than 0.100000
B(  0-C ,  1-C ) :   0.9819 B(  0-C ,  2-H ) :   0.9796 B(  0-C ,  3-H ) :   0.9769
B(  0-C ,  4-H ) :   0.9767 B(  1-C ,  5-C ) :   0.9762 B(  1-C ,  6-H ) :   0.9704
B(  1-C ,  7-H ) :   0.9700 B(  5-C ,  8-C ) :   0.9468 B(  5-C ,  9-H ) :   0.9630
B(  5-C , 10-H ) :   0.9645 B(  8-C , 11-N ) :   0.8581 B(  8-C , 12-H ) :   0.9638
B(  8-C , 13-H ) :   0.9634 B( 11-N , 14-H ) :   0.8796 B( 11-N , 15-H ) :   0.8787
B( 11-N , 16-H ) :   0.8795

Dispersion correction           -0.001256193
FINAL SINGLE POINT ENERGY      -214.190377480300

DIPOLE MOMENT
-------------
                                X             Y             Z
Electronic contribution:      4.14797      -0.44249      -0.05867
Nuclear contribution   :     -0.67602       0.51369      -0.05305
                        -----------------------------------------
Total Dipole Moment    :      3.47195       0.07120      -0.11171
                        -----------------------------------------
Magnitude (a.u.)       :      3.47448
Magnitude (Debye)      :      8.83141

Dispersion correction in the Hessian             ... Starting D4

VIBRATIONAL FREQUENCIES
-----------------------

Scaling factor for frequencies =  1.000000000  (already applied!)

   0:         0.00 cm**-1
   1:         0.00 cm**-1
   2:         0.00 cm**-1
   3:         0.00 cm**-1
   4:         0.00 cm**-1
   5:         0.00 cm**-1
   6:        68.68 cm**-1
   7:       101.31 cm**-1
   8:       171.82 cm**-1
   9:       201.93 cm**-1
  10:       224.73 cm**-1
  11:       395.96 cm**-1
  12:       406.17 cm**-1
  13:       746.66 cm**-1
  14:       793.31 cm**-1
  15:       899.22 cm**-1
  16:       899.91 cm**-1
  17:       924.30 cm**-1
  18:      1005.71 cm**-1
  19:      1009.28 cm**-1
  20:      1071.65 cm**-1
  21:      1094.27 cm**-1
  22:      1188.16 cm**-1
  23:      1221.49 cm**-1
  24:      1302.10 cm**-1
  25:      1319.95 cm**-1
  26:      1347.86 cm**-1
  27:      1357.03 cm**-1
  28:      1405.52 cm**-1
  29:      1430.04 cm**-1
  30:      1434.34 cm**-1
  31:      1493.42 cm**-1
  32:      1495.24 cm**-1
  33:      1503.01 cm**-1
  34:      1505.75 cm**-1
  35:      1516.40 cm**-1
  36:      1522.34 cm**-1
  37:      1662.05 cm**-1
  38:      1669.72 cm**-1
  39:      3046.97 cm**-1
  40:      3067.32 cm**-1
  41:      3074.10 cm**-1
  42:      3088.16 cm**-1
  43:      3112.35 cm**-1
  44:      3116.32 cm**-1
  45:      3148.36 cm**-1
  46:      3168.57 cm**-1
  47:      3178.59 cm**-1
  48:      3443.68 cm**-1
  49:      3524.61 cm**-1
  50:      3531.98 cm**-1

IR SPECTRUM
-----------

 Mode   freq       eps      Int      T**2         TX        TY        TZ
       cm**-1   L/(mol*cm) km/mol    a.u.
----------------------------------------------------------------------------
  6:     68.68   0.000214    1.08  0.000973  (-0.001843 -0.003799 -0.030898)
  7:    101.31   0.000673    3.40  0.002074  (-0.001198  0.009429  0.044537)
  8:    171.82   0.001139    5.76  0.002069  ( 0.025898 -0.036717  0.007072)
  9:    201.93   0.000027    0.14  0.000042  ( 0.003333 -0.005388 -0.001485)
 10:    224.73   0.000023    0.12  0.000032  (-0.002583  0.003559  0.003519)
 11:    395.96   0.000770    3.89  0.000607  (-0.024587 -0.001106  0.000876)
 12:    406.17   0.001394    7.05  0.001071  (-0.032050  0.006647  0.000137)
 13:    746.66   0.001203    6.08  0.000503  (-0.000691 -0.002780 -0.022236)
 14:    793.31   0.000258    1.30  0.000102  (-0.000518 -0.001286 -0.009981)
 15:    899.22   0.002500   12.63  0.000867  ( 0.024246 -0.012475  0.011134)
 16:    899.91   0.001787    9.03  0.000620  (-0.010790  0.009571  0.020287)
 17:    924.30   0.001351    6.83  0.000456  ( 0.020927  0.004015 -0.001443)
 18:   1005.71   0.000486    2.46  0.000151  (-0.000238  0.001600 -0.012177)
 19:   1009.28   0.000660    3.33  0.000204  (-0.000331  0.014259  0.000714)
 20:   1071.65   0.001860    9.40  0.000542  ( 0.020112 -0.011684  0.000718)
 21:   1094.27   0.002195   11.09  0.000626  ( 0.025012 -0.000245 -0.000541)
 22:   1188.16   0.001733    8.76  0.000455  (-0.004841  0.020657 -0.002221)
 23:   1221.49   0.000256    1.30  0.000066  (-0.000343 -0.000808 -0.008046)
 24:   1302.10   0.000495    2.50  0.000119  (-0.001145 -0.000666 -0.010807)
 25:   1319.95   0.000260    1.31  0.000061  (-0.003429  0.006960  0.001109)
 26:   1347.86   0.000458    2.32  0.000106  (-0.000558 -0.000968 -0.010239)
 27:   1357.03   0.000357    1.80  0.000082  ( 0.001101  0.000790  0.008960)
 28:   1405.52   0.000165    0.83  0.000037  (-0.001219  0.005889 -0.000690)
 29:   1430.04   0.003367   17.01  0.000735  ( 0.026196  0.006732 -0.001772)
 30:   1434.34   0.000614    3.10  0.000134  ( 0.006430 -0.009585  0.000607)
 31:   1493.42   0.000648    3.28  0.000136  (-0.010886 -0.002372  0.003373)
 32:   1495.24   0.000597    3.02  0.000125  ( 0.003489  0.010290 -0.002547)
 33:   1503.01   0.002399   12.13  0.000498  (-0.000394 -0.003895 -0.021974)
 34:   1505.75   0.000573    2.90  0.000119  ( 0.008104 -0.003274  0.006514)
 35:   1516.40   0.008693   43.93  0.001789  ( 0.042228 -0.001716 -0.001674)
 36:   1522.34   0.025567  129.21  0.005241  (-0.056219 -0.045025  0.007296)
 37:   1662.05   0.010518   53.16  0.001975  (-0.005433  0.001248 -0.044089)
 38:   1669.72   0.007715   38.99  0.001442  ( 0.020873 -0.031136 -0.006062)
 39:   3046.97   0.002146   10.85  0.000220  ( 0.009346  0.011368 -0.001801)
 40:   3067.32   0.003180   16.07  0.000324  (-0.001001 -0.017827  0.002178)
 41:   3074.10   0.003841   19.41  0.000390  (-0.008588  0.017689 -0.001809)
 42:   3088.16   0.000462    2.33  0.000047  ( 0.000218  0.000931  0.006766)
 43:   3112.35   0.002524   12.76  0.000253  (-0.000441 -0.002102 -0.015764)
 44:   3116.32   0.000566    2.86  0.000057  (-0.002173  0.007180 -0.000653)
 45:   3148.36   0.005346   27.01  0.000530  ( 0.000430  0.002731  0.022852)
 46:   3168.57   0.002022   10.22  0.000199  (-0.009422 -0.010408  0.001437)
 47:   3178.59   0.000344    1.74  0.000034  (-0.000180 -0.000863 -0.005743)
 48:   3443.68   0.009515   48.09  0.000862  ( 0.026943  0.011512 -0.001941)
 49:   3524.61   0.018234   92.15  0.001614  ( 0.000424 -0.007194 -0.039529)
 50:   3531.98   0.020037  101.26  0.001770  (-0.023243  0.034501 -0.006309)

--------------------------
THERMOCHEMISTRY AT 298.15K
--------------------------

Temperature         ... 298.15 K
Pressure            ... 1.00 atm
Total Mass          ... 74.15 AMU

Throughout the following assumptions are being made:
  (1) The electronic state is orbitally nondegenerate
  (2) There are no thermally accessible electronically excited states
  (3) Hindered rotations indicated by low frequency modes are not
      treated as such but are treated as vibrations and this may
      cause some error
  (4) All equations used are the standard statistical mechanics
      equations for an ideal gas
  (5) All vibrations are strictly harmonic

freq.      68.68  E(vib)   ...       0.50
freq.     101.31  E(vib)   ...       0.46
freq.     171.82  E(vib)   ...       0.38
freq.     201.93  E(vib)   ...       0.35
freq.     224.73  E(vib)   ...       0.33
freq.     395.96  E(vib)   ...       0.20
freq.     406.17  E(vib)   ...       0.19
freq.     746.66  E(vib)   ...       0.06
freq.     793.31  E(vib)   ...       0.05
freq.     899.22  E(vib)   ...       0.03
freq.     899.91  E(vib)   ...       0.03
freq.     924.30  E(vib)   ...       0.03
freq.    1005.71  E(vib)   ...       0.02
freq.    1009.28  E(vib)   ...       0.02
freq.    1071.65  E(vib)   ...       0.02
freq.    1094.27  E(vib)   ...       0.02
freq.    1188.16  E(vib)   ...       0.01
freq.    1221.49  E(vib)   ...       0.01
freq.    1302.10  E(vib)   ...       0.01
freq.    1319.95  E(vib)   ...       0.01
freq.    1347.86  E(vib)   ...       0.01
freq.    1357.03  E(vib)   ...       0.01
freq.    1405.52  E(vib)   ...       0.00
freq.    1430.04  E(vib)   ...       0.00
freq.    1434.34  E(vib)   ...       0.00
freq.    1493.42  E(vib)   ...       0.00
freq.    1495.24  E(vib)   ...       0.00
freq.    1503.01  E(vib)   ...       0.00
freq.    1505.75  E(vib)   ...       0.00
freq.    1516.40  E(vib)   ...       0.00
freq.    1522.34  E(vib)   ...       0.00
freq.    1662.05  E(vib)   ...       0.00
freq.    1669.72  E(vib)   ...       0.00
freq.    3046.97  E(vib)   ...       0.00
freq.    3067.32  E(vib)   ...       0.00
freq.    3074.10  E(vib)   ...       0.00
freq.    3088.16  E(vib)   ...       0.00
freq.    3112.35  E(vib)   ...       0.00
freq.    3116.32  E(vib)   ...       0.00
freq.    3148.36  E(vib)   ...       0.00
freq.    3168.57  E(vib)   ...       0.00
freq.    3178.59  E(vib)   ...       0.00
freq.    3443.68  E(vib)   ...       0.00
freq.    3524.61  E(vib)   ...       0.00
freq.    3531.98  E(vib)   ...       0.00

------------
INNER ENERGY
------------

The inner energy is: U= E(el) + E(ZPE) + E(vib) + E(rot) + E(trans)
    E(el)   - is the total energy from the electronic structure calculation
              = E(kin-el) + E(nuc-el) + E(el-el) + E(nuc-nuc)
    E(ZPE)  - the the zero temperature vibrational energy from the frequency calculation
    E(vib)  - the the finite temperature correction to E(ZPE) due to population
              of excited vibrational states
    E(rot)  - is the rotational thermal energy
    E(trans)- is the translational thermal energy

Summary of contributions to the inner energy U:
Electronic energy                ...   -214.19037748 Eh
Zero point energy                ...      0.16605638 Eh     104.20 kcal/mol
Thermal vibrational correction   ...      0.00441675 Eh       2.77 kcal/mol
Thermal rotational correction    ...      0.00141627 Eh       0.89 kcal/mol
Thermal translational correction ...      0.00141627 Eh       0.89 kcal/mol
-----------------------------------------------------------------------
Total thermal energy                   -214.01707180 Eh

Summary of corrections to the electronic energy:
(perhaps to be used in another calculation)
Total thermal correction                  0.00724930 Eh       4.55 kcal/mol
Non-thermal (ZPE) correction              0.16605638 Eh     104.20 kcal/mol
-----------------------------------------------------------------------
Total correction                          0.17330568 Eh     108.75 kcal/mol

--------
ENTHALPY
--------

The enthalpy is H = U + kB*T
                kB is Boltzmann's constant
Total free energy                 ...   -214.01707180 Eh
Thermal Enthalpy correction       ...      0.00094421 Eh       0.59 kcal/mol
-----------------------------------------------------------------------
Total Enthalpy                    ...   -214.01612759 Eh

Note: Only C1 symmetry has been detected, increase convergence thresholds
      if your molecule has a higher symmetry. Symmetry factor of 1.0 is
      used for the rotational entropy correction.

Note: Rotational entropy computed according to Herzberg
Infrared and Raman Spectra, Chapter V,1, Van Nostrand Reinhold, 1945
Point Group:  C1, Symmetry Number:   1
Rotational constants in cm-1:     0.567583     0.063833     0.060529

Vibrational entropy computed according to the QRRHO of S. Grimme
Chem.Eur.J. 2012 18 9955

-------
ENTROPY
-------

The entropy contributions are T*S = T*(S(el)+S(vib)+S(rot)+S(trans))
     S(el)   - electronic entropy
     S(vib)  - vibrational entropy
     S(rot)  - rotational entropy
     S(trans)- translational entropy
The entropies will be listed as multiplied by the temperature to get
units of energy

Electronic entropy                ...      0.00000000 Eh      0.00 kcal/mol
Vibrational entropy               ...      0.00779954 Eh      4.89 kcal/mol
Rotational entropy                ...      0.01240118 Eh      7.78 kcal/mol
Translational entropy             ...      0.01844761 Eh     11.58 kcal/mol
-----------------------------------------------------------------------
Final entropy term                ...      0.03864832 Eh     24.25 kcal/mol

In case the symmetry of your molecule has not been determined correctly
or in case you have a reason to use a different symmetry number we print
out the resulting rotational entropy values for sn=1,12 :
 --------------------------------------------------------
|  sn= 1 | S(rot)=       0.01240118 Eh      7.78 kcal/mol|
|  sn= 2 | S(rot)=       0.01174672 Eh      7.37 kcal/mol|
|  sn= 3 | S(rot)=       0.01136389 Eh      7.13 kcal/mol|
|  sn= 4 | S(rot)=       0.01109226 Eh      6.96 kcal/mol|
|  sn= 5 | S(rot)=       0.01088157 Eh      6.83 kcal/mol|
|  sn= 6 | S(rot)=       0.01070943 Eh      6.72 kcal/mol|
|  sn= 7 | S(rot)=       0.01056388 Eh      6.63 kcal/mol|
|  sn= 8 | S(rot)=       0.01043781 Eh      6.55 kcal/mol|
|  sn= 9 | S(rot)=       0.01032660 Eh      6.48 kcal/mol|
|  sn=10 | S(rot)=       0.01022712 Eh      6.42 kcal/mol|
|  sn=11 | S(rot)=       0.01013713 Eh      6.36 kcal/mol|
|  sn=12 | S(rot)=       0.01005497 Eh      6.31 kcal/mol|
 --------------------------------------------------------

-------------------
GIBBS FREE ENERGY
-------------------

                             ****ORCA TERMINATED NORMALLY****
TOTAL RUN TIME: 0 days 0 hours 3 minutes 3 seconds 16 msec
