                         Program Version 5.0.4 -  RELEASE  -
|  1> ! Opt FREQ wB97X D4 Def2-SVP SlowConv TightSCF DEFGRID2 Def2/J RIJCOSX
|  2> %MAXCORE 4000
|  3> %scf MaxIter 20000 end
|  4> %geom
|  5> MaxIter 500
|  6> end
|  7> %PAL NPROCS 8 END
|  8>
|  9> * xyz 1 1
| 10> C -0.13667 2.57822 0.04111
| 11> C 0.24737 -2.46778 0.35643
| 12> N 0.00165 1.09203 -0.38261
| 13> N 0.22431 -1.10175 -0.28748
| 14> C -0.46087 0.51426 -1.59058
| 15> C -0.37255 -0.81534 -1.45114
| 16> C 0.39671 0.06613 0.37217
| 17> H -1.05495 1.01742 -2.3831
| 18> H -0.63151 -1.60068 -2.16388
| 19> H 0.62504 0.04149 1.44255
| 20> C 1.1247 3.3119 -0.29855
| 21> C 1.5924 -3.10421 0.01546
| 22> C -1.00218 -3.25898 -0.16138
| 23> C -1.35288 3.04657 -0.67326
| 24> H 1.34126 3.30266 -1.37828
| 25> H 1.68394 -3.23684 -1.10535
| 26> H -0.80593 -3.45887 -1.23226
| 27> H -1.19822 3.13509 -1.76624
| 28> H 1.11326 4.42269 0.03392
| 29> H 1.59522 -4.13489 0.47515
| 30> H -1.04115 -4.23626 0.37773
| 31> H -1.59698 4.04104 -0.25204
| 32> H 1.96253 2.81495 0.23063
| 33> H 2.49728 -2.55748 0.41481
| 34> H -1.9088 -2.63369 -0.04593
| 35> H -2.19398 2.36479 -0.44909
| 36> C -0.26424 2.53547 1.53564
| 37> C 0.0125 -2.371 1.90952
| 38> H -0.35959 3.56596 1.93687
| 39> H -0.07428 -3.37079 2.38457
| 40> H -1.12768 1.88356 1.81732
| 41> H -0.90345 -1.84164 2.18178
| 42> H 0.84931 -1.90183 2.45072
| 43> H 0.6769 2.08861 1.9379
| 44> **                         ****END OF INPUT****
 Total Charge           Charge          ....    1
 Multiplicity           Mult            ....    1
 Number of Electrons    NEL             ....  100
Dispersion correction           -0.005601606
FINAL SINGLE POINT ENERGY      -540.583640030782
Dispersion correction            ... Starting D4
Dispersion correction           -0.005597767
FINAL SINGLE POINT ENERGY      -540.604978877035
Dispersion correction            ... Starting D4
Dispersion correction           -0.005593166
FINAL SINGLE POINT ENERGY      -540.613541535163
Dispersion correction            ... Starting D4
FINAL SINGLE POINT ENERGY      -540.617286848307
FINAL SINGLE POINT ENERGY      -540.618955528743
FINAL SINGLE POINT ENERGY      -540.619537876728
FINAL SINGLE POINT ENERGY      -540.619918156922
FINAL SINGLE POINT ENERGY      -540.620188959371
FINAL SINGLE POINT ENERGY      -540.620417477130
FINAL SINGLE POINT ENERGY      -540.620638603110
FINAL SINGLE POINT ENERGY      -540.620823296893
FINAL SINGLE POINT ENERGY      -540.620893158575
Dispersion correction           -0.005578992
FINAL SINGLE POINT ENERGY      -540.620907491524
Dispersion correction            ... Starting D4
Dispersion correction           -0.005579126
FINAL SINGLE POINT ENERGY      -540.620908700023
Dispersion correction            ... Starting D4
                    ***********************HURRAY********************

CARTESIAN COORDINATES (ANGSTROEM)
---------------------------------
  C     -0.177355    2.510033    0.072581
  C      0.137590   -2.512508    0.402120
  N     -0.079608    1.054599   -0.287642
  N      0.050014   -1.116086   -0.145375
  C     -0.018654    0.562684   -1.573027
  C      0.062189   -0.791932   -1.484018
  C     -0.036452    0.018015    0.549733
  H     -0.035860    1.205420   -2.450034
  H      0.131189   -1.540834   -2.269448
  H     -0.064196    0.087571    1.632853
  C      1.058293    3.214315   -0.490461
  C      1.460548   -3.114285   -0.074365
  C     -1.061796   -3.299060   -0.129205
  C     -1.463855    3.056655   -0.548093
  H      1.109522    3.142474   -1.587178
  H      1.507336   -3.190517   -1.170990
  H     -1.062034   -3.359480   -1.227763
  H     -1.456055    2.979178   -1.645584
  H      1.017993    4.282049   -0.231649
  H      1.566736   -4.130234    0.332111
  H     -1.022598   -4.327417    0.257573
  H     -1.567573    4.121343   -0.294524
  H      1.983965    2.795435   -0.067897
  H      2.316766   -2.515624    0.271555
  H     -2.010928   -2.848774    0.198346
  H     -2.348287    2.525191   -0.165665
  C     -0.219237    2.646435    1.591773
  C      0.099516   -2.453596    1.926403
  H     -0.282801    3.713528    1.845132
  H      0.161769   -3.478248    2.317657
  H     -1.103236    2.156373    2.028599
  H     -0.840642   -2.019735    2.300823
  H      0.953548   -1.895872    2.340972
  H      0.692663    2.253715    2.067798

 Multiplicity           Mult            ....    1
 Number of Electrons    NEL             ....  100
 Basis Dimension        Dim             ....  287

ORBITAL ENERGIES
----------------

  NO   OCC          E(Eh)            E(eV)
   0   2.0000     -14.646279      -398.5455
   1   2.0000     -14.646227      -398.5441
   2   2.0000     -10.523252      -286.3523
   3   2.0000     -10.478338      -285.1301
   4   2.0000     -10.478307      -285.1292
   5   2.0000     -10.472639      -284.9750
   6   2.0000     -10.472058      -284.9592
   7   2.0000     -10.409301      -283.2515
   8   2.0000     -10.409271      -283.2507
   9   2.0000     -10.402392      -283.0635
  10   2.0000     -10.402389      -283.0634
  11   2.0000     -10.402300      -283.0610
  12   2.0000     -10.402284      -283.0605
  13   2.0000      -1.351472       -36.7754
  14   2.0000      -1.231487       -33.5105
  15   2.0000      -1.112661       -30.2771
  16   2.0000      -1.065381       -28.9905
  17   2.0000      -1.059687       -28.8355
  18   2.0000      -0.965229       -26.2652
  19   2.0000      -0.958621       -26.0854
  20   2.0000      -0.952186       -25.9103
  21   2.0000      -0.951432       -25.8898
  22   2.0000      -0.924162       -25.1477
  23   2.0000      -0.902178       -24.5495
  24   2.0000      -0.865324       -23.5467
  25   2.0000      -0.835429       -22.7332
  26   2.0000      -0.778817       -21.1927
  27   2.0000      -0.764643       -20.8070
  28   2.0000      -0.737509       -20.0686
  29   2.0000      -0.725731       -19.7481
  30   2.0000      -0.722279       -19.6542
  31   2.0000      -0.712826       -19.3970
  32   2.0000      -0.708220       -19.2717
  33   2.0000      -0.686848       -18.6901
  34   2.0000      -0.685645       -18.6574
  35   2.0000      -0.677707       -18.4414
  36   2.0000      -0.649441       -17.6722
  37   2.0000      -0.630351       -17.1527
  38   2.0000      -0.630249       -17.1500
  39   2.0000      -0.627615       -17.0783
  40   2.0000      -0.625077       -17.0092
  41   2.0000      -0.616237       -16.7687
  42   2.0000      -0.610778       -16.6201
  43   2.0000      -0.610486       -16.6122
  44   2.0000      -0.597587       -16.2612
  45   2.0000      -0.584911       -15.9162
  46   2.0000      -0.584618       -15.9083
  47   2.0000      -0.582551       -15.8520
  48   2.0000      -0.545039       -14.8313
  49   2.0000      -0.513604       -13.9759
  50   0.0000      -0.077029        -2.0961
  51   0.0000      -0.043724        -1.1898
  52   0.0000      -0.001845        -0.0502
  53   0.0000       0.014724         0.4007
  54   0.0000       0.027159         0.7390

MULLIKEN ATOMIC CHARGES
-----------------------
   0 C :   -0.263502
   1 C :   -0.263475
   2 N :   -0.175134
   3 N :   -0.174702
   4 C :    0.069891
   5 C :    0.069395
   6 C :    0.202958
   7 H :    0.091710
   8 H :    0.091924
   9 H :    0.098168
  10 C :    0.042484
  11 C :    0.043044
  12 C :    0.043224
  13 C :    0.043245
  14 H :    0.047426
  15 H :    0.047544
  16 H :    0.047388
  17 H :    0.047136
  18 H :    0.071123
  19 H :    0.071389
  20 H :    0.070829
  21 H :    0.071177
  22 H :    0.055396
  23 H :    0.054872
  24 H :    0.055615
  25 H :    0.055401
  26 C :    0.005940
  27 C :    0.005649
  28 H :    0.078276
  29 H :    0.078227
  30 H :    0.054567
  31 H :    0.054547
  32 H :    0.054122
  33 H :    0.054147
Sum of atomic charges:    1.0000000

LOEWDIN ATOMIC CHARGES
----------------------
   0 C :    0.012996
   1 C :    0.012991
   2 N :    0.097307
   3 N :    0.097503
   4 C :    0.021485
   5 C :    0.021294
   6 C :    0.102764
   7 H :    0.054028
   8 H :    0.054045
   9 H :    0.051496
  10 C :   -0.041417
  11 C :   -0.041399
  12 C :   -0.041385
  13 C :   -0.041365
  14 H :    0.033663
  15 H :    0.033734
  16 H :    0.033646
  17 H :    0.033642
  18 H :    0.049745
  19 H :    0.049740
  20 H :    0.049728
  21 H :    0.049716
  22 H :    0.038035
  23 H :    0.037877
  24 H :    0.038192
  25 H :    0.038003
  26 C :   -0.048178
  27 C :   -0.048111
  28 H :    0.055415
  29 H :    0.055352
  30 H :    0.034976
  31 H :    0.034922
  32 H :    0.034780
  33 H :    0.034782

  Mayer bond orders larger than 0.100000
B(  0-C ,  2-N ) :   0.7919 B(  0-C , 10-C ) :   1.0331 B(  0-C , 13-C ) :   1.0334
B(  0-C , 26-C ) :   1.0588 B(  1-C ,  3-N ) :   0.7919 B(  1-C , 11-C ) :   1.0333
B(  1-C , 12-C ) :   1.0333 B(  1-C , 27-C ) :   1.0586 B(  2-N ,  4-C ) :   1.1764
B(  2-N ,  6-C ) :   1.3565 B(  3-N ,  5-C ) :   1.1767 B(  3-N ,  6-C ) :   1.3566
B(  4-C ,  5-C ) :   1.6195 B(  4-C ,  7-H ) :   0.9825 B(  5-C ,  8-H ) :   0.9824
B(  6-C ,  9-H ) :   0.9642 B( 10-C , 14-H ) :   0.9614 B( 10-C , 18-H ) :   0.9685
B( 10-C , 22-H ) :   0.9648 B( 11-C , 15-H ) :   0.9614 B( 11-C , 19-H ) :   0.9685
B( 11-C , 23-H ) :   0.9646 B( 12-C , 16-H ) :   0.9613 B( 12-C , 20-H ) :   0.9685
B( 12-C , 24-H ) :   0.9648 B( 13-C , 17-H ) :   0.9613 B( 13-C , 21-H ) :   0.9685
B( 13-C , 25-H ) :   0.9647 B( 26-C , 28-H ) :   0.9604 B( 26-C , 30-H ) :   0.9569
B( 26-C , 33-H ) :   0.9566 B( 27-C , 29-H ) :   0.9605 B( 27-C , 31-H ) :   0.9567
B( 27-C , 32-H ) :   0.9568

Dispersion correction           -0.005579116
FINAL SINGLE POINT ENERGY      -540.620908775205

DIPOLE MOMENT
-------------
                                X             Y             Z
Electronic contribution:      0.04208      -0.26770      -4.02170
Nuclear contribution   :     -0.03943       0.26965       4.05342
                        -----------------------------------------
Total Dipole Moment    :      0.00266       0.00195       0.03172
                        -----------------------------------------
Magnitude (a.u.)       :      0.03189
Magnitude (Debye)      :      0.08105

Dispersion correction in the Hessian             ... Starting D4

VIBRATIONAL FREQUENCIES
-----------------------

Scaling factor for frequencies =  1.000000000  (already applied!)

   0:         0.00 cm**-1
   1:         0.00 cm**-1
   2:         0.00 cm**-1
   3:         0.00 cm**-1
   4:         0.00 cm**-1
   5:         0.00 cm**-1
   6:        14.74 cm**-1
   7:        39.04 cm**-1
   8:       121.78 cm**-1
   9:       144.09 cm**-1
  10:       156.18 cm**-1
  11:       230.02 cm**-1
  12:       235.85 cm**-1
  13:       266.50 cm**-1
  14:       267.89 cm**-1
  15:       280.47 cm**-1
  16:       286.77 cm**-1
  17:       325.15 cm**-1
  18:       330.75 cm**-1
  19:       342.16 cm**-1
  20:       352.91 cm**-1
  21:       360.71 cm**-1
  22:       367.22 cm**-1
  23:       403.09 cm**-1
  24:       444.64 cm**-1
  25:       467.20 cm**-1
  26:       470.40 cm**-1
  27:       520.20 cm**-1
  28:       573.39 cm**-1
  29:       633.25 cm**-1
  30:       686.50 cm**-1
  31:       693.29 cm**-1
  32:       778.24 cm**-1
  33:       842.33 cm**-1
  34:       845.98 cm**-1
  35:       884.91 cm**-1
  36:       922.43 cm**-1
  37:       946.11 cm**-1
  38:       946.40 cm**-1
  39:       952.55 cm**-1
  40:       954.25 cm**-1
  41:       965.85 cm**-1
  42:       968.27 cm**-1
  43:      1021.68 cm**-1
  44:      1038.86 cm**-1
  45:      1047.43 cm**-1
  46:      1048.45 cm**-1
  47:      1051.50 cm**-1
  48:      1052.78 cm**-1
  49:      1123.56 cm**-1
  50:      1144.67 cm**-1
  51:      1224.38 cm**-1
  52:      1235.08 cm**-1
  53:      1263.98 cm**-1
  54:      1272.25 cm**-1
  55:      1284.01 cm**-1
  56:      1286.59 cm**-1
  57:      1303.29 cm**-1
  58:      1353.25 cm**-1
  59:      1405.74 cm**-1
  60:      1406.26 cm**-1
  61:      1406.87 cm**-1
  62:      1407.74 cm**-1
  63:      1429.28 cm**-1
  64:      1430.05 cm**-1
  65:      1451.00 cm**-1
  66:      1455.32 cm**-1
  67:      1456.05 cm**-1
  68:      1457.33 cm**-1
  69:      1457.85 cm**-1
  70:      1461.80 cm**-1
  71:      1465.92 cm**-1
  72:      1469.29 cm**-1
  73:      1486.36 cm**-1
  74:      1487.22 cm**-1
  75:      1488.50 cm**-1
  76:      1490.42 cm**-1
  77:      1496.23 cm**-1
  78:      1498.94 cm**-1
  79:      1635.66 cm**-1
  80:      1649.77 cm**-1
  81:      3072.84 cm**-1
  82:      3073.23 cm**-1
  83:      3077.53 cm**-1
  84:      3077.73 cm**-1
  85:      3080.52 cm**-1
  86:      3080.81 cm**-1
  87:      3172.83 cm**-1
  88:      3173.17 cm**-1
  89:      3180.18 cm**-1
  90:      3180.55 cm**-1
  91:      3182.33 cm**-1
  92:      3182.47 cm**-1
  93:      3189.03 cm**-1
  94:      3189.19 cm**-1
  95:      3189.40 cm**-1
  96:      3189.49 cm**-1
  97:      3194.43 cm**-1
  98:      3194.57 cm**-1
  99:      3308.00 cm**-1
 100:      3325.52 cm**-1
 101:      3343.69 cm**-1

IR SPECTRUM
-----------

 Mode   freq       eps      Int      T**2         TX        TY        TZ
       cm**-1   L/(mol*cm) km/mol    a.u.
----------------------------------------------------------------------------
  6:     14.74   0.000000    0.00  0.000000  (-0.000064  0.000025 -0.000208)
  7:     39.04   0.000000    0.00  0.000000  (-0.000266  0.000166 -0.000227)
  8:    121.78   0.000043    0.22  0.000110  (-0.010442 -0.000673 -0.000162)
  9:    144.09   0.000012    0.06  0.000027  (-0.000264 -0.000097 -0.005161)
 10:    156.18   0.000000    0.00  0.000000  (-0.000071 -0.000268 -0.000275)
 11:    230.02   0.000001    0.00  0.000001  (-0.000469  0.000056  0.000929)
 12:    235.85   0.000000    0.00  0.000000  ( 0.000347  0.000341 -0.000278)
 13:    266.50   0.000001    0.01  0.000001  (-0.000202 -0.000645 -0.000900)
 14:    267.89   0.000001    0.00  0.000001  ( 0.000316 -0.000181  0.000682)
 15:    280.47   0.000023    0.12  0.000026  ( 0.000404  0.000594  0.005015)
 16:    286.77   0.000004    0.02  0.000004  (-0.000571  0.001540 -0.001239)
 17:    325.15   0.000000    0.00  0.000000  ( 0.000350 -0.000141  0.000316)
 18:    330.75   0.000008    0.04  0.000008  (-0.002773  0.000007 -0.000324)
 19:    342.16   0.000057    0.29  0.000052  ( 0.007201  0.000528 -0.000051)
 20:    352.91   0.000003    0.01  0.000002  (-0.000056 -0.000144 -0.001555)
 21:    360.71   0.000000    0.00  0.000000  (-0.000056  0.000117  0.000110)
 22:    367.22   0.000000    0.00  0.000000  (-0.000469  0.000071 -0.000034)
 23:    403.09   0.000041    0.21  0.000032  ( 0.000147 -0.005643  0.000342)
 24:    444.64   0.000201    1.01  0.000141  ( 0.011823  0.000983  0.000245)
 25:    467.20   0.000005    0.03  0.000004  (-0.000238  0.000489  0.001791)
 26:    470.40   0.000092    0.46  0.000061  ( 0.000262 -0.000347 -0.007781)
 27:    520.20   0.000124    0.63  0.000075  (-0.000266  0.008620 -0.000481)
 28:    573.39   0.000185    0.94  0.000101  ( 0.000173 -0.000725 -0.010019)
 29:    633.25   0.002106   10.64  0.001038  (-0.001832  0.032092 -0.002156)
 30:    686.50   0.006644   33.58  0.003020  ( 0.054816  0.003748  0.001187)
 31:    693.29   0.000027    0.14  0.000012  (-0.003496  0.000255 -0.000091)
 32:    778.24   0.004942   24.97  0.001982  (-0.044425 -0.002504 -0.001343)
 33:    842.33   0.000013    0.07  0.000005  (-0.000099  0.000036  0.002221)
 34:    845.98   0.000071    0.36  0.000026  ( 0.000231 -0.005100  0.000312)
 35:    884.91   0.002728   13.79  0.000962  ( 0.030980  0.001314  0.000707)
 36:    922.43   0.000013    0.07  0.000004  ( 0.002062  0.000084 -0.000331)
 37:    946.11   0.000504    2.54  0.000166  ( 0.012523  0.001017  0.002867)
 38:    946.40   0.000168    0.85  0.000055  (-0.006215 -0.000042 -0.004105)
 39:    952.55   0.000439    2.22  0.000144  (-0.002272  0.001059  0.011721)
 40:    954.25   0.000229    1.15  0.000075  (-0.003774 -0.000195  0.007775)
 41:    965.85   0.000011    0.06  0.000004  (-0.001845 -0.000201  0.000271)
 42:    968.27   0.000013    0.06  0.000004  (-0.001941 -0.000484  0.000174)
 43:   1021.68   0.000435    2.20  0.000133  ( 0.000708 -0.011467  0.000969)
 44:   1038.86   0.000118    0.59  0.000035  (-0.000229  0.000114  0.005938)
 45:   1047.43   0.000059    0.30  0.000018  ( 0.000777  0.001217 -0.003941)
 46:   1048.45   0.000044    0.22  0.000013  (-0.000643  0.003351  0.001217)
 47:   1051.50   0.000021    0.11  0.000006  ( 0.002404 -0.000626  0.000077)
 48:   1052.78   0.000095    0.48  0.000028  ( 0.005025  0.000943  0.001405)
 49:   1123.56   0.003297   16.66  0.000916  ( 0.000685 -0.000012 -0.030251)
 50:   1144.67   0.012876   65.07  0.003510  (-0.003558  0.059071 -0.002864)
 51:   1224.38   0.000691    3.49  0.000176  (-0.000333  0.001831  0.013136)
 52:   1235.08   0.053569  270.72  0.013535  (-0.007369  0.115860 -0.007570)
 53:   1263.98   0.000376    1.90  0.000093  (-0.000835  0.009574 -0.000591)
 54:   1272.25   0.000022    0.11  0.000005  (-0.000076  0.000270  0.002307)
 55:   1284.01   0.000071    0.36  0.000017  (-0.004134 -0.000261 -0.000130)
 56:   1286.59   0.002137   10.80  0.000518  (-0.022673 -0.001968 -0.000658)
 57:   1303.29   0.000042    0.21  0.000010  (-0.000497 -0.003131  0.000044)
 58:   1353.25   0.002159   10.91  0.000498  (-0.000865  0.001383  0.022255)
 59:   1405.74   0.000466    2.36  0.000103  ( 0.009071 -0.004517 -0.000885)
 60:   1406.26   0.008617   43.55  0.001912  ( 0.030372  0.005643  0.030950)
 61:   1406.87   0.003612   18.25  0.000801  (-0.007781 -0.001501  0.027172)
 62:   1407.74   0.006879   34.76  0.001525  ( 0.031077  0.000553 -0.023640)
 63:   1429.28   0.003237   16.36  0.000707  ( 0.002001 -0.026504 -0.000530)
 64:   1430.05   0.000481    2.43  0.000105  (-0.003543  0.007881 -0.005507)
 65:   1451.00   0.000146    0.74  0.000031  ( 0.000299 -0.005586  0.000004)
 66:   1455.32   0.000022    0.11  0.000005  ( 0.001743  0.001227  0.000383)
 67:   1456.05   0.000050    0.25  0.000011  ( 0.003021  0.001242 -0.000161)
 68:   1457.33   0.000001    0.01  0.000000  ( 0.000389 -0.000224  0.000323)
 69:   1457.85   0.000002    0.01  0.000001  ( 0.000340 -0.000282 -0.000572)
 70:   1461.80   0.000094    0.47  0.000020  (-0.000369 -0.001780  0.004081)
 71:   1465.92   0.000577    2.92  0.000123  ( 0.001360 -0.010785  0.002184)
 72:   1469.29   0.002949   14.90  0.000626  ( 0.000882 -0.002043 -0.024927)
 73:   1486.36   0.000496    2.51  0.000104  (-0.010157  0.000320  0.000970)
 74:   1487.22   0.003829   19.35  0.000803  ( 0.028180  0.002383 -0.001915)
 75:   1488.50   0.000512    2.59  0.000107  ( 0.001825 -0.009447  0.003836)
 76:   1490.42   0.002141   10.82  0.000448  ( 0.002666  0.003369  0.020734)
 77:   1496.23   0.002445   12.36  0.000510  (-0.001322  0.022367  0.002822)
 78:   1498.94   0.000965    4.88  0.000201  (-0.000920  0.007877 -0.011745)
 79:   1635.66   0.024872  125.69  0.004745  (-0.004230  0.068585 -0.004838)
 80:   1649.77   0.002402   12.14  0.000454  ( 0.000706 -0.002276 -0.021182)
 81:   3072.84   0.001233    6.23  0.000125  (-0.000476  0.008641 -0.007094)
 82:   3073.23   0.001467    7.41  0.000149  (-0.000875  0.005912  0.010641)
 83:   3077.53   0.000897    4.53  0.000091  (-0.009522 -0.000511 -0.000223)
 84:   3077.73   0.001181    5.97  0.000120  ( 0.010883  0.001139 -0.000040)
 85:   3080.52   0.000209    1.06  0.000021  (-0.000149  0.000702  0.004550)
 86:   3080.81   0.000270    1.36  0.000027  (-0.000874  0.000173 -0.005149)
 87:   3172.83   0.001454    7.35  0.000143  (-0.011938 -0.000667 -0.000282)
 88:   3173.17   0.000751    3.79  0.000074  (-0.008568 -0.000635 -0.000014)
 89:   3180.18   0.000850    4.30  0.000083  ( 0.007537  0.001727  0.004864)
 90:   3180.55   0.000680    3.44  0.000067  ( 0.008148  0.000577  0.000062)
 91:   3182.33   0.000869    4.39  0.000085  (-0.000975  0.001743 -0.009015)
 92:   3182.47   0.002945   14.88  0.000289  (-0.002984  0.001999  0.016609)
 93:   3189.03   0.000139    0.70  0.000014  (-0.002179 -0.000612  0.002912)
 94:   3189.19   0.000401    2.03  0.000039  (-0.001603 -0.000472 -0.006038)
 95:   3189.40   0.000419    2.12  0.000041  ( 0.005661 -0.000494 -0.002956)
 96:   3189.49   0.000452    2.28  0.000044  ( 0.006335 -0.000025  0.002013)
 97:   3194.43   0.002374   12.00  0.000232  (-0.000785  0.015093 -0.001867)
 98:   3194.57   0.000313    1.58  0.000031  ( 0.000342 -0.004088 -0.003708)
 99:   3308.00   0.002495   12.61  0.000235  ( 0.000991 -0.015270  0.001081)
100:   3325.52   0.003344   16.90  0.000314  ( 0.000581 -0.001006 -0.017677)
101:   3343.69   0.003541   17.89  0.000330  (-0.000434  0.001121  0.018139)

--------------------------
THERMOCHEMISTRY AT 298.15K
--------------------------

Temperature         ... 298.15 K
Pressure            ... 1.00 atm
Total Mass          ... 181.30 AMU

Throughout the following assumptions are being made:
  (1) The electronic state is orbitally nondegenerate
  (2) There are no thermally accessible electronically excited states
  (3) Hindered rotations indicated by low frequency modes are not
      treated as such but are treated as vibrations and this may
      cause some error
  (4) All equations used are the standard statistical mechanics
      equations for an ideal gas
  (5) All vibrations are strictly harmonic

freq.      14.74  E(vib)   ...       0.57
freq.      39.04  E(vib)   ...       0.54
freq.     121.78  E(vib)   ...       0.44
freq.     144.09  E(vib)   ...       0.41
freq.     156.18  E(vib)   ...       0.40
freq.     230.02  E(vib)   ...       0.32
freq.     235.85  E(vib)   ...       0.32
freq.     266.50  E(vib)   ...       0.29
freq.     267.89  E(vib)   ...       0.29
freq.     280.47  E(vib)   ...       0.28
freq.     286.77  E(vib)   ...       0.27
freq.     325.15  E(vib)   ...       0.24
freq.     330.75  E(vib)   ...       0.24
freq.     342.16  E(vib)   ...       0.23
freq.     352.91  E(vib)   ...       0.22
freq.     360.71  E(vib)   ...       0.22
freq.     367.22  E(vib)   ...       0.22
freq.     403.09  E(vib)   ...       0.19
freq.     444.64  E(vib)   ...       0.17
freq.     467.20  E(vib)   ...       0.16
freq.     470.40  E(vib)   ...       0.15
freq.     520.20  E(vib)   ...       0.13
freq.     573.39  E(vib)   ...       0.11
freq.     633.25  E(vib)   ...       0.09
freq.     686.50  E(vib)   ...       0.07
freq.     693.29  E(vib)   ...       0.07
freq.     778.24  E(vib)   ...       0.05
freq.     842.33  E(vib)   ...       0.04
freq.     845.98  E(vib)   ...       0.04
freq.     884.91  E(vib)   ...       0.04
freq.     922.43  E(vib)   ...       0.03
freq.     946.11  E(vib)   ...       0.03
freq.     946.40  E(vib)   ...       0.03
freq.     952.55  E(vib)   ...       0.03
freq.     954.25  E(vib)   ...       0.03
freq.     965.85  E(vib)   ...       0.03
freq.     968.27  E(vib)   ...       0.03
freq.    1021.68  E(vib)   ...       0.02
freq.    1038.86  E(vib)   ...       0.02
freq.    1047.43  E(vib)   ...       0.02
freq.    1048.45  E(vib)   ...       0.02
freq.    1051.50  E(vib)   ...       0.02
freq.    1052.78  E(vib)   ...       0.02
freq.    1123.56  E(vib)   ...       0.01
freq.    1144.67  E(vib)   ...       0.01
freq.    1224.38  E(vib)   ...       0.01
freq.    1235.08  E(vib)   ...       0.01
freq.    1263.98  E(vib)   ...       0.01
freq.    1272.25  E(vib)   ...       0.01
freq.    1284.01  E(vib)   ...       0.01
freq.    1286.59  E(vib)   ...       0.01
freq.    1303.29  E(vib)   ...       0.01
freq.    1353.25  E(vib)   ...       0.01
freq.    1405.74  E(vib)   ...       0.00
freq.    1406.26  E(vib)   ...       0.00
freq.    1406.87  E(vib)   ...       0.00
freq.    1407.74  E(vib)   ...       0.00
freq.    1429.28  E(vib)   ...       0.00
freq.    1430.05  E(vib)   ...       0.00
freq.    1451.00  E(vib)   ...       0.00
freq.    1455.32  E(vib)   ...       0.00
freq.    1456.05  E(vib)   ...       0.00
freq.    1457.33  E(vib)   ...       0.00
freq.    1457.85  E(vib)   ...       0.00
freq.    1461.80  E(vib)   ...       0.00
freq.    1465.92  E(vib)   ...       0.00
freq.    1469.29  E(vib)   ...       0.00
freq.    1486.36  E(vib)   ...       0.00
freq.    1487.22  E(vib)   ...       0.00
freq.    1488.50  E(vib)   ...       0.00
freq.    1490.42  E(vib)   ...       0.00
freq.    1496.23  E(vib)   ...       0.00
freq.    1498.94  E(vib)   ...       0.00
freq.    1635.66  E(vib)   ...       0.00
freq.    1649.77  E(vib)   ...       0.00
freq.    3072.84  E(vib)   ...       0.00
freq.    3073.23  E(vib)   ...       0.00
freq.    3077.53  E(vib)   ...       0.00
freq.    3077.73  E(vib)   ...       0.00
freq.    3080.52  E(vib)   ...       0.00
freq.    3080.81  E(vib)   ...       0.00
freq.    3172.83  E(vib)   ...       0.00
freq.    3173.17  E(vib)   ...       0.00
freq.    3180.18  E(vib)   ...       0.00
freq.    3180.55  E(vib)   ...       0.00
freq.    3182.33  E(vib)   ...       0.00
freq.    3182.47  E(vib)   ...       0.00
freq.    3189.03  E(vib)   ...       0.00
freq.    3189.19  E(vib)   ...       0.00
freq.    3189.40  E(vib)   ...       0.00
freq.    3189.49  E(vib)   ...       0.00
freq.    3194.43  E(vib)   ...       0.00
freq.    3194.57  E(vib)   ...       0.00
freq.    3308.00  E(vib)   ...       0.00
freq.    3325.52  E(vib)   ...       0.00
freq.    3343.69  E(vib)   ...       0.00

------------
INNER ENERGY
------------

The inner energy is: U= E(el) + E(ZPE) + E(vib) + E(rot) + E(trans)
    E(el)   - is the total energy from the electronic structure calculation
              = E(kin-el) + E(nuc-el) + E(el-el) + E(nuc-nuc)
    E(ZPE)  - the the zero temperature vibrational energy from the frequency calculation
    E(vib)  - the the finite temperature correction to E(ZPE) due to population
              of excited vibrational states
    E(rot)  - is the rotational thermal energy
    E(trans)- is the translational thermal energy

Summary of contributions to the inner energy U:
Electronic energy                ...   -540.62090878 Eh
Zero point energy                ...      0.31170885 Eh     195.60 kcal/mol
Thermal vibrational correction   ...      0.01164603 Eh       7.31 kcal/mol
Thermal rotational correction    ...      0.00141627 Eh       0.89 kcal/mol
Thermal translational correction ...      0.00141627 Eh       0.89 kcal/mol
-----------------------------------------------------------------------
Total thermal energy                   -540.29472135 Eh

Summary of corrections to the electronic energy:
(perhaps to be used in another calculation)
Total thermal correction                  0.01447858 Eh       9.09 kcal/mol
Non-thermal (ZPE) correction              0.31170885 Eh     195.60 kcal/mol
-----------------------------------------------------------------------
Total correction                          0.32618742 Eh     204.69 kcal/mol

--------
ENTHALPY
--------

The enthalpy is H = U + kB*T
                kB is Boltzmann's constant
Total free energy                 ...   -540.29472135 Eh
Thermal Enthalpy correction       ...      0.00094421 Eh       0.59 kcal/mol
-----------------------------------------------------------------------
Total Enthalpy                    ...   -540.29377714 Eh

Note: Only C1 symmetry has been detected, increase convergence thresholds
      if your molecule has a higher symmetry. Symmetry factor of 1.0 is
      used for the rotational entropy correction.

Rotational constants in cm-1:     0.055323     0.014735     0.013776

                             ****ORCA TERMINATED NORMALLY****
TOTAL RUN TIME: 0 days 0 hours 28 minutes 33 seconds 514 msec
