                         Program Version 5.0.4 -  RELEASE  -
|  1> # ORCAForces - ../2023_04/pKa_prediction/DFT_Calcs/extra_carbenes/imag/9+_Gas_imag3.inp
|  2> # Basic Mode
|  3> #
|  4> ! Opt FREQ wB97X D4 Def2-SVP SlowConv TightSCF DEFGRID2 Def2/J RIJCOSX
|  5>
|  6> %maxcore 4500
|  7>
|  8> %PAL NPROCS 4 END
|  9>
| 10> %geom
| 11> Maxiter 150
| 12> END
| 13>
| 14> * xyzfile 1 1 9+_Gas_imag3.xyz
| 15>
| 16>                          ****END OF INPUT****
 Total Charge           Charge          ....    1
 Multiplicity           Mult            ....    1
 Number of Electrons    NEL             ....   54
Dispersion correction           -0.001833798
FINAL SINGLE POINT ENERGY      -306.047037870514
Dispersion correction            ... Starting D4
Dispersion correction           -0.001828868
FINAL SINGLE POINT ENERGY      -306.091224469710
Dispersion correction            ... Starting D4
Dispersion correction           -0.001833003
FINAL SINGLE POINT ENERGY      -306.119748322899
Dispersion correction            ... Starting D4
FINAL SINGLE POINT ENERGY      -306.133066393270
FINAL SINGLE POINT ENERGY      -306.134964206550
FINAL SINGLE POINT ENERGY      -306.135467757040
FINAL SINGLE POINT ENERGY      -306.135999792344
FINAL SINGLE POINT ENERGY      -306.136407068589
FINAL SINGLE POINT ENERGY      -306.136758466170
FINAL SINGLE POINT ENERGY      -306.137085046267
FINAL SINGLE POINT ENERGY      -306.137291777836
FINAL SINGLE POINT ENERGY      -306.137336416027
FINAL SINGLE POINT ENERGY      -306.137356072249
Dispersion correction           -0.001838180
FINAL SINGLE POINT ENERGY      -306.137369840980
Dispersion correction            ... Starting D4
Dispersion correction           -0.001838223
FINAL SINGLE POINT ENERGY      -306.137373250640
Dispersion correction            ... Starting D4
                    ***********************HURRAY********************

CARTESIAN COORDINATES (ANGSTROEM)
---------------------------------
  C     -0.125450    0.853005   -1.189258
  C     -0.132366   -0.681911   -1.356082
  N      0.020994    1.025192    0.263559
  N      0.009262   -1.163525    0.025566
  C      0.087788   -0.146440    0.851095
  H     -1.059793    1.325016   -1.529395
  H     -1.069953   -1.062998   -1.788757
  H      0.704786   -1.051154   -1.967909
  H      0.714796    1.338217   -1.708962
  C      0.081862    2.328973    0.899261
  C      0.060977   -2.574255    0.364589
  H     -0.838447    2.893865    0.690850
  H     -0.858736   -3.074817    0.028409
  H      0.927235   -3.048098   -0.120306
  H      0.945748    2.893585    0.518951
  H      0.185978    2.205716    1.984727
  H      0.152751   -2.688888    1.452152
  H      0.198789   -0.264544    1.933660

 Multiplicity           Mult            ....    1
 Number of Electrons    NEL             ....   54
 Basis Dimension        Dim             ....  153

ORBITAL ENERGIES
----------------

  NO   OCC          E(Eh)            E(eV)
   0   2.0000     -14.643610      -398.4729
   1   2.0000     -14.643578      -398.4720
   2   2.0000     -10.563693      -287.4527
   3   2.0000     -10.491710      -285.4939
   4   2.0000     -10.491664      -285.4927
   5   2.0000     -10.475899      -285.0637
   6   2.0000     -10.475827      -285.0618
   7   2.0000      -1.345722       -36.6190
   8   2.0000      -1.234327       -33.5877
   9   2.0000      -1.083982       -29.4967
  10   2.0000      -1.052897       -28.6508
  11   2.0000      -0.983530       -26.7632
  12   2.0000      -0.942432       -25.6449
  13   2.0000      -0.892338       -24.2817
  14   2.0000      -0.823479       -22.4080
  15   2.0000      -0.810537       -22.0558
  16   2.0000      -0.769422       -20.9370
  17   2.0000      -0.735811       -20.0224
  18   2.0000      -0.731250       -19.8983
  19   2.0000      -0.723046       -19.6751
  20   2.0000      -0.707851       -19.2616
  21   2.0000      -0.692421       -18.8417
  22   2.0000      -0.664808       -18.0903
  23   2.0000      -0.654691       -17.8150
  24   2.0000      -0.652910       -17.7666
  25   2.0000      -0.639462       -17.4007
  26   2.0000      -0.509858       -13.8739
  27   0.0000      -0.102448        -2.7878
  28   0.0000      -0.016401        -0.4463
  29   0.0000      -0.003067        -0.0834
  30   0.0000       0.002811         0.0765
  31   0.0000       0.038613         1.0507

MULLIKEN ATOMIC CHARGES
-----------------------
   0 C :    0.098427
   1 C :    0.098763
   2 N :   -0.342158
   3 N :   -0.342143
   4 C :    0.284916
   5 H :    0.098670
   6 H :    0.098462
   7 H :    0.098470
   8 H :    0.098498
   9 C :    0.069185
  10 C :    0.069168
  11 H :    0.094540
  12 H :    0.094251
  13 H :    0.094835
  14 H :    0.094587
  15 H :    0.084705
  16 H :    0.084908
  17 H :    0.121913
Sum of atomic charges:    1.0000000

LOEWDIN ATOMIC CHARGES
----------------------
   0 C :    0.064908
   1 C :    0.064824
   2 N :    0.012302
   3 N :    0.012365
   4 C :    0.178818
   5 H :    0.050862
   6 H :    0.050824
   7 H :    0.050768
   8 H :    0.050783
   9 C :    0.048315
  10 C :    0.048365
  11 H :    0.050153
  12 H :    0.050186
  13 H :    0.050040
  14 H :    0.050065
  15 H :    0.050618
  16 H :    0.050647
  17 H :    0.065157

  Mayer bond orders larger than 0.100000
B(  0-C ,  1-C ) :   1.0839 B(  0-C ,  2-N ) :   0.9201 B(  0-C ,  5-H ) :   0.9545
B(  0-C ,  8-H ) :   0.9547 B(  1-C ,  3-N ) :   0.9203 B(  1-C ,  6-H ) :   0.9545
B(  1-C ,  7-H ) :   0.9546 B(  2-N ,  3-N ) :   0.1016 B(  2-N ,  4-C ) :   1.4150
B(  2-N ,  9-C ) :   0.9102 B(  3-N ,  4-C ) :   1.4152 B(  3-N , 10-C ) :   0.9103
B(  4-C , 17-H ) :   0.9644 B(  9-C , 11-H ) :   0.9718 B(  9-C , 14-H ) :   0.9718
B(  9-C , 15-H ) :   0.9733 B( 10-C , 12-H ) :   0.9717 B( 10-C , 13-H ) :   0.9717
B( 10-C , 16-H ) :   0.9732

Dispersion correction           -0.001838270
FINAL SINGLE POINT ENERGY      -306.137375060328

DIPOLE MOMENT
-------------
                                X             Y             Z
Electronic contribution:      0.03725      -0.06057       0.56014
Nuclear contribution   :     -0.00734       0.03222      -0.30381
                        -----------------------------------------
Total Dipole Moment    :      0.02991      -0.02835       0.25634
                        -----------------------------------------
Magnitude (a.u.)       :      0.25963
Magnitude (Debye)      :      0.65993

Dispersion correction in the Hessian             ... Starting D4

VIBRATIONAL FREQUENCIES
-----------------------

Scaling factor for frequencies =  1.000000000  (already applied!)

   0:         0.00 cm**-1
   1:         0.00 cm**-1
   2:         0.00 cm**-1
   3:         0.00 cm**-1
   4:         0.00 cm**-1
   5:         0.00 cm**-1
   6:        89.66 cm**-1
   7:       113.97 cm**-1
   8:       130.79 cm**-1
   9:       182.36 cm**-1
  10:       223.31 cm**-1
  11:       272.58 cm**-1
  12:       400.86 cm**-1
  13:       479.51 cm**-1
  14:       614.80 cm**-1
  15:       633.08 cm**-1
  16:       853.27 cm**-1
  17:       947.64 cm**-1
  18:       959.03 cm**-1
  19:      1011.96 cm**-1
  20:      1014.90 cm**-1
  21:      1096.20 cm**-1
  22:      1107.61 cm**-1
  23:      1114.63 cm**-1
  24:      1143.78 cm**-1
  25:      1160.46 cm**-1
  26:      1198.79 cm**-1
  27:      1234.36 cm**-1
  28:      1259.22 cm**-1
  29:      1337.84 cm**-1
  30:      1339.75 cm**-1
  31:      1354.26 cm**-1
  32:      1394.58 cm**-1
  33:      1449.93 cm**-1
  34:      1455.76 cm**-1
  35:      1458.89 cm**-1
  36:      1459.50 cm**-1
  37:      1481.80 cm**-1
  38:      1488.91 cm**-1
  39:      1494.71 cm**-1
  40:      1512.89 cm**-1
  41:      1625.17 cm**-1
  42:      1783.75 cm**-1
  43:      3082.59 cm**-1
  44:      3082.94 cm**-1
  45:      3101.54 cm**-1
  46:      3105.35 cm**-1
  47:      3162.93 cm**-1
  48:      3173.32 cm**-1
  49:      3188.60 cm**-1
  50:      3188.91 cm**-1
  51:      3215.14 cm**-1
  52:      3215.29 cm**-1
  53:      3255.44 cm**-1

IR SPECTRUM
-----------

 Mode   freq       eps      Int      T**2         TX        TY        TZ
       cm**-1   L/(mol*cm) km/mol    a.u.
----------------------------------------------------------------------------
  6:     89.66   0.000001    0.00  0.000003  ( 0.001540 -0.000866 -0.000481)
  7:    113.97   0.000263    1.33  0.000721  ( 0.026707  0.000244 -0.002809)
  8:    130.79   0.000073    0.37  0.000174  ( 0.013092  0.000594 -0.001358)
  9:    182.36   0.000574    2.90  0.000982  (-0.031178 -0.000813  0.002982)
 10:    223.31   0.000001    0.01  0.000001  (-0.000187 -0.001175 -0.000075)
 11:    272.58   0.000007    0.03  0.000008  (-0.000181  0.000222 -0.002752)
 12:    400.86   0.000049    0.25  0.000038  (-0.000035 -0.006161 -0.000645)
 13:    479.51   0.005224   26.40  0.003400  ( 0.057979  0.000838 -0.006124)
 14:    614.80   0.000026    0.13  0.000013  (-0.000719  0.000170 -0.003577)
 15:    633.08   0.001449    7.32  0.000714  (-0.000075 -0.026574 -0.002849)
 16:    853.27   0.000001    0.00  0.000000  (-0.000330 -0.000381 -0.000042)
 17:    947.64   0.001727    8.73  0.000569  ( 0.002425 -0.002259  0.023619)
 18:    959.03   0.000612    3.09  0.000199  ( 0.000160  0.014064  0.001138)
 19:   1011.96   0.000757    3.82  0.000233  (-0.015212  0.000278  0.001361)
 20:   1014.90   0.000023    0.11  0.000007  (-0.000702 -0.000351  0.002512)
 21:   1096.20   0.000014    0.07  0.000004  ( 0.000081 -0.001611  0.001231)
 22:   1107.61   0.004405   22.26  0.001241  (-0.000062 -0.035047 -0.003583)
 23:   1114.63   0.001549    7.83  0.000434  (-0.002344  0.001891 -0.020604)
 24:   1143.78   0.000056    0.28  0.000015  (-0.003645  0.001246  0.000631)
 25:   1160.46   0.000010    0.05  0.000003  (-0.000668 -0.001383 -0.000474)
 26:   1198.79   0.016618   83.98  0.004326  ( 0.000617  0.065380  0.007138)
 27:   1234.36   0.001821    9.20  0.000460  (-0.021350 -0.000207  0.002112)
 28:   1259.22   0.000009    0.05  0.000002  (-0.001468  0.000171  0.000377)
 29:   1337.84   0.003746   18.93  0.000874  ( 0.002115  0.015043  0.025357)
 30:   1339.75   0.003773   19.07  0.000879  (-0.001950  0.025701 -0.014643)
 31:   1354.26   0.008759   44.27  0.002018  (-0.000183 -0.044730 -0.004198)
 32:   1394.58   0.003283   16.59  0.000735  ( 0.002821 -0.001994  0.026882)
 33:   1449.93   0.005669   28.65  0.001220  ( 0.008310 -0.033719 -0.003750)
 34:   1455.76   0.000418    2.11  0.000090  ( 0.008026 -0.001343  0.004845)
 35:   1458.89   0.007370   37.25  0.001577  ( 0.039225  0.006089 -0.000887)
 36:   1459.50   0.001142    5.77  0.000244  (-0.011491 -0.005497  0.009052)
 37:   1481.80   0.006352   32.10  0.001338  ( 0.002639 -0.002764  0.036375)
 38:   1488.91   0.000001    0.01  0.000000  (-0.000244 -0.000313 -0.000341)
 39:   1494.71   0.000061    0.31  0.000013  (-0.000336  0.003433  0.000879)
 40:   1512.89   0.000554    2.80  0.000114  (-0.000882  0.001165 -0.010588)
 41:   1625.17   0.005152   26.04  0.000989  (-0.003032  0.003540 -0.031106)
 42:   1783.75   0.104526  528.23  0.018287  (-0.000568 -0.134423 -0.014716)
 43:   3082.59   0.003601   18.20  0.000365  ( 0.000060  0.018931  0.002474)
 44:   3082.94   0.000226    1.14  0.000023  (-0.000581  0.002343 -0.004134)
 45:   3101.54   0.000948    4.79  0.000095  (-0.000000  0.009686  0.001265)
 46:   3105.35   0.000613    3.10  0.000062  ( 0.000668 -0.001170  0.007732)
 47:   3162.93   0.000000    0.00  0.000000  ( 0.000014 -0.000028 -0.000031)
 48:   3173.32   0.000259    1.31  0.000025  ( 0.005018  0.000044 -0.000505)
 49:   3188.60   0.000049    0.25  0.000005  ( 0.002163  0.000042 -0.000295)
 50:   3188.91   0.000165    0.84  0.000016  (-0.004004 -0.000011  0.000396)
 51:   3215.14   0.000053    0.27  0.000005  (-0.000095  0.002068 -0.000934)
 52:   3215.29   0.000048    0.24  0.000005  ( 0.000142  0.001716  0.001307)
 53:   3255.44   0.001406    7.11  0.000135  (-0.001238  0.001174 -0.011485)

--------------------------
THERMOCHEMISTRY AT 298.15K
--------------------------

Temperature         ... 298.15 K
Pressure            ... 1.00 atm
Total Mass          ... 99.16 AMU

Throughout the following assumptions are being made:
  (1) The electronic state is orbitally nondegenerate
  (2) There are no thermally accessible electronically excited states
  (3) Hindered rotations indicated by low frequency modes are not
      treated as such but are treated as vibrations and this may
      cause some error
  (4) All equations used are the standard statistical mechanics
      equations for an ideal gas
  (5) All vibrations are strictly harmonic

freq.      89.66  E(vib)   ...       0.47
freq.     113.97  E(vib)   ...       0.44
freq.     130.79  E(vib)   ...       0.43
freq.     182.36  E(vib)   ...       0.37
freq.     223.31  E(vib)   ...       0.33
freq.     272.58  E(vib)   ...       0.29
freq.     400.86  E(vib)   ...       0.19
freq.     479.51  E(vib)   ...       0.15
freq.     614.80  E(vib)   ...       0.10
freq.     633.08  E(vib)   ...       0.09
freq.     853.27  E(vib)   ...       0.04
freq.     947.64  E(vib)   ...       0.03
freq.     959.03  E(vib)   ...       0.03
freq.    1011.96  E(vib)   ...       0.02
freq.    1014.90  E(vib)   ...       0.02
freq.    1096.20  E(vib)   ...       0.02
freq.    1107.61  E(vib)   ...       0.02
freq.    1114.63  E(vib)   ...       0.01
freq.    1143.78  E(vib)   ...       0.01
freq.    1160.46  E(vib)   ...       0.01
freq.    1198.79  E(vib)   ...       0.01
freq.    1234.36  E(vib)   ...       0.01
freq.    1259.22  E(vib)   ...       0.01
freq.    1337.84  E(vib)   ...       0.01
freq.    1339.75  E(vib)   ...       0.01
freq.    1354.26  E(vib)   ...       0.01
freq.    1394.58  E(vib)   ...       0.00
freq.    1449.93  E(vib)   ...       0.00
freq.    1455.76  E(vib)   ...       0.00
freq.    1458.89  E(vib)   ...       0.00
freq.    1459.50  E(vib)   ...       0.00
freq.    1481.80  E(vib)   ...       0.00
freq.    1488.91  E(vib)   ...       0.00
freq.    1494.71  E(vib)   ...       0.00
freq.    1512.89  E(vib)   ...       0.00
freq.    1625.17  E(vib)   ...       0.00
freq.    1783.75  E(vib)   ...       0.00
freq.    3082.59  E(vib)   ...       0.00
freq.    3082.94  E(vib)   ...       0.00
freq.    3101.54  E(vib)   ...       0.00
freq.    3105.35  E(vib)   ...       0.00
freq.    3162.93  E(vib)   ...       0.00
freq.    3173.32  E(vib)   ...       0.00
freq.    3188.60  E(vib)   ...       0.00
freq.    3188.91  E(vib)   ...       0.00
freq.    3215.14  E(vib)   ...       0.00
freq.    3215.29  E(vib)   ...       0.00
freq.    3255.44  E(vib)   ...       0.00

------------
INNER ENERGY
------------

The inner energy is: U= E(el) + E(ZPE) + E(vib) + E(rot) + E(trans)
    E(el)   - is the total energy from the electronic structure calculation
              = E(kin-el) + E(nuc-el) + E(el-el) + E(nuc-nuc)
    E(ZPE)  - the the zero temperature vibrational energy from the frequency calculation
    E(vib)  - the the finite temperature correction to E(ZPE) due to population
              of excited vibrational states
    E(rot)  - is the rotational thermal energy
    E(trans)- is the translational thermal energy

Summary of contributions to the inner energy U:
Electronic energy                ...   -306.13737506 Eh
Zero point energy                ...      0.16551462 Eh     103.86 kcal/mol
Thermal vibrational correction   ...      0.00501750 Eh       3.15 kcal/mol
Thermal rotational correction    ...      0.00141627 Eh       0.89 kcal/mol
Thermal translational correction ...      0.00141627 Eh       0.89 kcal/mol
-----------------------------------------------------------------------
Total thermal energy                   -305.96401039 Eh

Summary of corrections to the electronic energy:
(perhaps to be used in another calculation)
Total thermal correction                  0.00785004 Eh       4.93 kcal/mol
Non-thermal (ZPE) correction              0.16551462 Eh     103.86 kcal/mol
-----------------------------------------------------------------------
Total correction                          0.17336467 Eh     108.79 kcal/mol

--------
ENTHALPY
--------

The enthalpy is H = U + kB*T
                kB is Boltzmann's constant
Total free energy                 ...   -305.96401039 Eh
Thermal Enthalpy correction       ...      0.00094421 Eh       0.59 kcal/mol
-----------------------------------------------------------------------
Total Enthalpy                    ...   -305.96306618 Eh

Note: Only C1 symmetry has been detected, increase convergence thresholds
      if your molecule has a higher symmetry. Symmetry factor of 1.0 is
      used for the rotational entropy correction.

Note: Rotational entropy computed according to Herzberg
Infrared and Raman Spectra, Chapter V,1, Van Nostrand Reinhold, 1945
Point Group:  C1, Symmetry Number:   1
Rotational constants in cm-1:     0.190735     0.066102     0.051004

Vibrational entropy computed according to the QRRHO of S. Grimme
Chem.Eur.J. 2012 18 9955

-------
ENTROPY
-------

The entropy contributions are T*S = T*(S(el)+S(vib)+S(rot)+S(trans))
     S(el)   - electronic entropy
     S(vib)  - vibrational entropy
     S(rot)  - rotational entropy
     S(trans)- translational entropy
The entropies will be listed as multiplied by the temperature to get
units of energy

Electronic entropy                ...      0.00000000 Eh      0.00 kcal/mol
Vibrational entropy               ...      0.00883488 Eh      5.54 kcal/mol
Rotational entropy                ...      0.01298033 Eh      8.15 kcal/mol
Translational entropy             ...      0.01885925 Eh     11.83 kcal/mol
-----------------------------------------------------------------------
Final entropy term                ...      0.04067446 Eh     25.52 kcal/mol

In case the symmetry of your molecule has not been determined correctly
or in case you have a reason to use a different symmetry number we print
out the resulting rotational entropy values for sn=1,12 :
 --------------------------------------------------------
|  sn= 1 | S(rot)=       0.01298033 Eh      8.15 kcal/mol|
|  sn= 2 | S(rot)=       0.01232587 Eh      7.73 kcal/mol|
|  sn= 3 | S(rot)=       0.01194304 Eh      7.49 kcal/mol|
|  sn= 4 | S(rot)=       0.01167142 Eh      7.32 kcal/mol|
|  sn= 5 | S(rot)=       0.01146073 Eh      7.19 kcal/mol|
|  sn= 6 | S(rot)=       0.01128858 Eh      7.08 kcal/mol|
|  sn= 7 | S(rot)=       0.01114304 Eh      6.99 kcal/mol|
|  sn= 8 | S(rot)=       0.01101696 Eh      6.91 kcal/mol|
|  sn= 9 | S(rot)=       0.01090575 Eh      6.84 kcal/mol|
|  sn=10 | S(rot)=       0.01080627 Eh      6.78 kcal/mol|
|  sn=11 | S(rot)=       0.01071628 Eh      6.72 kcal/mol|
|  sn=12 | S(rot)=       0.01063413 Eh      6.67 kcal/mol|
 --------------------------------------------------------

                             ****ORCA TERMINATED NORMALLY****
TOTAL RUN TIME: 0 days 0 hours 11 minutes 27 seconds 10 msec
