   * xtb version 6.6.1 (8d0f1dd) compiled by 'conda@1efc2f54142f' on 2023-08-01
          program call               : xtb struc.xyz --gfn2 --ceasefiles --opt

   ID    Z sym.   atoms
    1    6 C      1, 2, 5-7, 11-14, 27, 28
    2    7 N      3, 4
    3    1 H      8-10, 15-26, 29-34

          :  Hamiltonian                  GFN2-xTB          :
 * total energy  :   -39.7472184 Eh     change       -0.1080238E-08 Eh
 * total energy  :   -39.7657588 Eh     change       -0.1854043E-01 Eh
 * total energy  :   -39.7720895 Eh     change       -0.6330739E-02 Eh
 * total energy  :   -39.7745465 Eh     change       -0.2456958E-02 Eh
 * total energy  :   -39.7760828 Eh     change       -0.1536267E-02 Eh
 * total energy  :   -39.7770458 Eh     change       -0.9630014E-03 Eh
 * total energy  :   -39.7776256 Eh     change       -0.5798613E-03 Eh
 * total energy  :   -39.7779065 Eh     change       -0.2808900E-03 Eh
   *** GEOMETRY OPTIMIZATION CONVERGED AFTER 8 ITERATIONS ***

 final structure:
================
34
 xtb: 6.6.1 (8d0f1dd)
C           -2.14572960327547        0.46606885867253        1.22984365453135
C            2.27688727431907       -0.45724870881174       -0.84270789331252
N           -1.08755393753915        0.24111781030445        0.22640494427673
N            0.83312628538370       -0.18528987435004       -0.70983058565550
C           -1.30922168665013        0.06950333112769       -1.10619266453909
C           -0.11158194339718       -0.19632836877292       -1.69226883707614
C            0.21520901492497        0.08451398747227        0.43821651058034
H           -2.27720884051598        0.13989920018552       -1.55714281810899
H            0.11805827842472       -0.38436010075719       -2.71855417084785
H            0.69897577969471        0.16014139728778        1.39009468711494
C           -1.51999079790595        0.76461430689093        2.58828837998946
C            3.04518143371641        0.80138515358906       -0.43333498865898
C            2.60247302958141       -0.82197813762674       -2.28824822972595
C           -3.00016001152352        1.65187381076982        0.78183490612369
H           -0.90034422928607        1.65504539392662        2.55058306490755
H            2.76549624191254        1.13211198894067        0.56326504338642
H            2.36909209729735       -0.00595432006941       -2.96837229835793
H           -2.39469554628393        2.55020476024145        0.67808355059221
H           -2.31321453781441        0.94477416921610        3.30650948084165
H            2.86158213585838        1.61422610655042       -1.13551520112186
H            3.66861759232033       -1.01757953860860       -2.36642184651223
H           -3.76481425454287        1.84326824795074        1.53086571099990
H           -0.93429022151867       -0.07280012969625        2.95553450501427
H            4.11241527244646        0.58763140807232       -0.43332881539265
H            2.07307624368555       -1.71944594387095       -2.59967304585640
H           -3.50325331994125        1.45812190099314       -0.16181952194516
C           -2.97842024851825       -0.81568184488956        1.29890763405908
C            2.61983324948075       -1.63158180508609        0.07867143903098
H           -3.81003138803089       -0.67326682131851        1.98564317206520
H            1.96324176590178       -2.47743417321520       -0.11157537165119
H           -3.38893903008236       -1.07587361795966        0.32619736229951
H            2.54407974888200       -1.35556827052817        1.12649972333465
H            3.64068161819278       -1.94978741104626       -0.10686180715944
H           -2.37670431869661       -1.64799239598434        1.66044373267358

          :  Hamiltonian                  GFN2-xTB          :
         :: total energy             -39.777906525629 Eh    ::
         :: gradient norm              0.006161401112 Eh/a0 ::
         :: HOMO-LUMO gap              4.802452225750 eV    ::
         :: SCC energy               -40.387621304858 Eh    ::
         :: -> dispersion             -0.027871094881 Eh    ::
         :: repulsion energy           0.609439998787 Eh    ::

    * Orbital Energies and Occupations

         #    Occupation            Energy/Eh            Energy/eV
      -------------------------------------------------------------
         1        2.0000           -0.8781945             -23.8969
       ...           ...                  ...                  ...
        25        2.0000           -0.6013741             -16.3642
        26        2.0000           -0.5996367             -16.3169
        27        2.0000           -0.5984786             -16.2854
        28        2.0000           -0.5957398             -16.2109
        29        2.0000           -0.5933668             -16.1463
        30        2.0000           -0.5913194             -16.0906
        31        2.0000           -0.5905661             -16.0701
        32        2.0000           -0.5896560             -16.0454
        33        2.0000           -0.5817026             -15.8289
        34        2.0000           -0.5782481             -15.7349
        35        2.0000           -0.5778835             -15.7250
        36        2.0000           -0.5740387             -15.6204
        37        2.0000           -0.5696884             -15.5020 (HOMO)
        38                         -0.3932015             -10.6996 (LUMO)
        39                         -0.3564825              -9.7004
        40                         -0.1972018              -5.3661
        41                         -0.1482200              -4.0333
        42                         -0.0746668              -2.0318
        43                         -0.0599331              -1.6309
        44                         -0.0580755              -1.5803
        45                         -0.0560297              -1.5246
        46                         -0.0411503              -1.1198
        47                         -0.0356123              -0.9691
        48                         -0.0323112              -0.8792
       ...                                ...                  ...
        73                          0.4761295              12.9561
      -------------------------------------------------------------
                  HL-Gap            0.1764869 Eh            4.8025 eV

     #   Z          covCN         q      C6AA      α(0)
     1   6 C        3.836     0.075    19.301     6.250
     2   6 C        3.837     0.074    19.314     6.252
     3   7 N        2.869     0.048    20.399     6.708
     4   7 N        2.871     0.045    20.446     6.716
     5   6 C        3.081    -0.005    28.063     8.685
     6   6 C        3.073    -0.007    28.119     8.695
     7   6 C        3.110     0.053    26.676     8.462
     8   1 H        0.927     0.099     1.796     2.096
     9   1 H        0.927     0.105     1.742     2.064
    10   1 H        0.926     0.107     1.719     2.050
    11   6 C        3.760    -0.133    23.100     6.852
    12   6 C        3.759    -0.129    23.020     6.840
    13   6 C        3.760    -0.131    23.064     6.847
    14   6 C        3.759    -0.129    23.023     6.840
    15   1 H        0.925     0.059     2.216     2.328
    16   1 H        0.925     0.053     2.287     2.365
    17   1 H        0.925     0.061     2.184     2.311
    18   1 H        0.925     0.059     2.205     2.322
    19   1 H        0.925     0.082     1.957     2.188
    20   1 H        0.925     0.062     2.179     2.308
    21   1 H        0.925     0.080     1.984     2.203
    22   1 H        0.925     0.079     1.990     2.206
    23   1 H        0.925     0.056     2.247     2.344
    24   1 H        0.925     0.080     1.977     2.199
    25   1 H        0.925     0.062     2.177     2.307
    26   1 H        0.925     0.061     2.185     2.312
    27   6 C        3.760    -0.128    22.998     6.837
    28   6 C        3.760    -0.129    23.036     6.842
    29   1 H        0.925     0.080     1.981     2.201
    30   1 H        0.925     0.057     2.230     2.335
    31   1 H        0.925     0.060     2.202     2.321
    32   1 H        0.925     0.055     2.253     2.347
    33   1 H        0.925     0.080     1.975     2.198
    34   1 H        0.925     0.057     2.230     2.335

molecular dipole:
                 x           y           z       tot (Debye)
 q only:       -0.106      -0.010      -0.099
   full:       -0.100      -0.005      -0.083       0.332

           -------------------------------------------------
          | TOTAL ENERGY              -39.777906525629 Eh   |
          | GRADIENT NORM               0.006161401112 Eh/α |
          | HOMO-LUMO GAP               4.802452225750 eV   |
           -------------------------------------------------

 * finished run on 2024/02/12 at 14:13:52.120
