   * xtb version 6.6.1 (8d0f1dd) compiled by 'conda@1efc2f54142f' on 2023-08-01
          program call               : xtb struc.xyz --gfn2 --ceasefiles --opt

   ID    Z sym.   atoms
    1    6 C      1, 2, 5-7, 11-14, 27, 28
    2    7 N      3, 4
    3    1 H      8-10, 15-26, 29-34

          :  Hamiltonian                  GFN2-xTB          :
 * total energy  :   -39.7420667 Eh     change       -0.3433009E-08 Eh
 * total energy  :   -39.7615436 Eh     change       -0.1947686E-01 Eh
 * total energy  :   -39.7675021 Eh     change       -0.5958525E-02 Eh
 * total energy  :   -39.7697578 Eh     change       -0.2255704E-02 Eh
 * total energy  :   -39.7708331 Eh     change       -0.1075274E-02 Eh
 * total energy  :   -39.7713819 Eh     change       -0.5488412E-03 Eh
 * total energy  :   -39.7718862 Eh     change       -0.5042626E-03 Eh
 * total energy  :   -39.7724969 Eh     change       -0.6106914E-03 Eh
 * total energy  :   -39.7730466 Eh     change       -0.5497408E-03 Eh
 * total energy  :   -39.7736421 Eh     change       -0.5954874E-03 Eh
 * total energy  :   -39.7740865 Eh     change       -0.4444347E-03 Eh
 * total energy  :   -39.7744371 Eh     change       -0.3505785E-03 Eh
 * total energy  :   -39.7748968 Eh     change       -0.4597035E-03 Eh
 * total energy  :   -39.7752616 Eh     change       -0.3648178E-03 Eh
 * total energy  :   -39.7755740 Eh     change       -0.3123096E-03 Eh
 * total energy  :   -39.7759204 Eh     change       -0.3464059E-03 Eh
   *** GEOMETRY OPTIMIZATION CONVERGED AFTER 16 ITERATIONS ***

 final structure:
================
34
 xtb: 6.6.1 (8d0f1dd)
C           -2.25318077697070        0.77197795733395        0.75140866493415
C            2.33291773834798       -0.39482521301511       -0.67974059938308
N           -1.14895214494419       -0.00371756251436        0.15725999206915
N            0.89437381399245       -0.54003559443576       -0.38569479364783
C           -1.17894014376545       -1.26382603466943       -0.35584127389890
C            0.09542439180043       -1.59541311761979       -0.70116990903480
C            0.11596979288441        0.40602641325481        0.12880128386581
H           -2.07977100933360       -1.83430146687997       -0.45350273898623
H            0.46482241454065       -2.50040949286990       -1.14248668028509
H            0.45261830060464        1.36457249335760        0.46615762885825
C           -2.29567584415085        2.16047290179919        0.10460936383985
C            2.98653107577890       -1.77528544183320       -0.69199699973163
C            2.98377734855305        0.47509628796145        0.39518904117310
C           -3.58195117347264        0.06270799453406        0.51024762462619
H           -2.77031599447025        2.12386342359103       -0.87534570594784
H            2.68265221046881       -2.35186286158204       -1.56201134230281
H            2.84199332190802        0.04741627624501        1.38375574351081
H           -3.73880237716198       -0.12435859574424       -0.54928159893587
H           -2.87348205771139        2.83382027127826        0.73365046550625
H            2.74647168833584       -2.32616329683201        0.21320227347662
H            4.04743164400080        0.53072303069095        0.20337231221238
H           -4.38960927451471        0.70443414015153        0.85228949694693
H           -1.30528867480193        2.59104460799329       -0.01147717757400
H            4.06540409353461       -1.65948300170791       -0.73943869214201
H            2.60332998023440        1.49249525524331        0.38477151115011
H           -3.64851946920990       -0.87349889499958        1.06225049905783
C           -1.96718077171746        0.86858829237006        2.25351526555292
C            2.44520911721828        0.26972174479461       -2.05483102917804
H           -0.99459461516902        1.30764146676461        2.43913194604220
H            2.01815148077060        1.26971718307744       -2.04001899046731
H           -2.71304472066069        1.48906325209490        2.73147324346330
H            1.93553576643883       -0.31400182718481       -2.81587675000677
H            3.49246251109081        0.35345356651258       -2.33302421674243
H           -1.99944126444871       -0.11416036396080        2.71594564647908

          :  Hamiltonian                  GFN2-xTB          :
         :: total energy             -39.775920365274 Eh    ::
         :: gradient norm              0.008908379503 Eh/a0 ::
         :: HOMO-LUMO gap              4.795627963622 eV    ::
         :: SCC energy               -40.387160141642 Eh    ::
         :: -> dispersion             -0.027920323559 Eh    ::
         :: repulsion energy           0.610958221861 Eh    ::

    * Orbital Energies and Occupations

         #    Occupation            Energy/Eh            Energy/eV
      -------------------------------------------------------------
         1        2.0000           -0.8785489             -23.9065
       ...           ...                  ...                  ...
        25        2.0000           -0.6018634             -16.3775
        26        2.0000           -0.6006475             -16.3445
        27        2.0000           -0.5992879             -16.3075
        28        2.0000           -0.5969842             -16.2448
        29        2.0000           -0.5935716             -16.1519
        30        2.0000           -0.5925135             -16.1231
        31        2.0000           -0.5901073             -16.0576
        32        2.0000           -0.5886169             -16.0171
        33        2.0000           -0.5820442             -15.8382
        34        2.0000           -0.5789565             -15.7542
        35        2.0000           -0.5773695             -15.7110
        36        2.0000           -0.5729146             -15.5898
        37        2.0000           -0.5699437             -15.5090 (HOMO)
        38                         -0.3937077             -10.7133 (LUMO)
        39                         -0.3563109              -9.6957
        40                         -0.1967616              -5.3542
        41                         -0.1487290              -4.0471
        42                         -0.0762927              -2.0760
        43                         -0.0647464              -1.7618
        44                         -0.0610950              -1.6625
        45                         -0.0532342              -1.4486
        46                         -0.0456432              -1.2420
        47                         -0.0361148              -0.9827
        48                         -0.0305193              -0.8305
       ...                                ...                  ...
        73                          0.4739032              12.8956
      -------------------------------------------------------------
                  HL-Gap            0.1762361 Eh            4.7956 eV

     #   Z          covCN         q      C6AA      α(0)
     1   6 C        3.837     0.075    19.313     6.252
     2   6 C        3.837     0.075    19.310     6.252
     3   7 N        2.868     0.047    20.412     6.710
     4   7 N        2.868     0.048    20.405     6.709
     5   6 C        3.081    -0.007    28.096     8.690
     6   6 C        3.083    -0.007    28.093     8.689
     7   6 C        3.124     0.053    26.626     8.450
     8   1 H        0.926     0.104     1.748     2.068
     9   1 H        0.926     0.102     1.762     2.076
    10   1 H        0.926     0.103     1.753     2.071
    11   6 C        3.758    -0.131    23.060     6.846
    12   6 C        3.759    -0.131    23.059     6.846
    13   6 C        3.760    -0.132    23.077     6.848
    14   6 C        3.760    -0.131    23.060     6.846
    15   1 H        0.925     0.066     2.130     2.282
    16   1 H        0.925     0.063     2.168     2.303
    17   1 H        0.925     0.061     2.191     2.315
    18   1 H        0.925     0.061     2.193     2.316
    19   1 H        0.925     0.079     1.992     2.207
    20   1 H        0.925     0.061     2.187     2.313
    21   1 H        0.925     0.081     1.964     2.192
    22   1 H        0.925     0.081     1.972     2.196
    23   1 H        0.925     0.050     2.317     2.381
    24   1 H        0.925     0.079     1.987     2.204
    25   1 H        0.925     0.054     2.276     2.359
    26   1 H        0.925     0.062     2.178     2.308
    27   6 C        3.761    -0.129    23.021     6.840
    28   6 C        3.760    -0.127    22.987     6.835
    29   1 H        0.925     0.053     2.277     2.360
    30   1 H        0.925     0.055     2.262     2.352
    31   1 H        0.925     0.080     1.980     2.200
    32   1 H        0.925     0.059     2.208     2.324
    33   1 H        0.925     0.081     1.970     2.195
    34   1 H        0.925     0.060     2.195     2.317

molecular dipole:
                 x           y           z       tot (Debye)
 q only:       -0.096      -0.142      -0.104
   full:       -0.089      -0.119      -0.103       0.458

           -------------------------------------------------
          | TOTAL ENERGY              -39.775920365274 Eh   |
          | GRADIENT NORM               0.008908379503 Eh/α |
          | HOMO-LUMO GAP               4.795627963622 eV   |
           -------------------------------------------------

 * finished run on 2024/02/12 at 14:13:52.250
