                         Program Version 5.0.4 -  RELEASE  -
|  1> # ORCA 5.0.4 - /users/bwb16179/postgrad/2024_06/pKa_Reviewer_Comments/Aq_Z=0/10_deprot.inp # write input file
|  2> # Basic Mode
|  3> #
|  4> ! Opt Freq wB97X Def2-TZVP D4 SlowConv TightSCF Defgrid2 Def2/J RIJCOSX CPCM(Water)
|  5>
|  6> %PAL NPROCS 4 END
|  7>
|  8> %maxcore 4500
|  9>
| 10> %geom
| 11> Maxiter 150
| 12> END
| 13>
| 14> * xyzfile 0 1 10_deprot.xyz
| 15>
| 16>                          ****END OF INPUT****
 Total Charge           Charge          ....    0
 Multiplicity           Mult            ....    1
 Number of Electrons    NEL             ....   62
Dispersion correction           -0.002578952
FINAL SINGLE POINT ENERGY      -345.363249054256
Dispersion correction            ... Starting D4
Dispersion correction           -0.002582184
FINAL SINGLE POINT ENERGY      -345.364016687697
Dispersion correction            ... Starting D4
Dispersion correction           -0.002582138
FINAL SINGLE POINT ENERGY      -345.364036907992
Dispersion correction            ... Starting D4
Dispersion correction           -0.002582002
FINAL SINGLE POINT ENERGY      -345.364043373428
Dispersion correction            ... Starting D4
                    ***********************HURRAY********************

CARTESIAN COORDINATES (ANGSTROEM)
---------------------------------
  C     -0.191133    1.049017    1.234201
  C      0.081520   -1.096257    0.000000
  C     -0.191130    1.049017   -1.234201
  C      0.357132    1.733040    0.000000
  H     -1.257099    1.272350    1.360066
  H      0.322963    1.403342   -2.130468
  H      1.448317    1.669684    0.000002
  N      0.000485   -0.396112    1.137548
  N      0.000486   -0.396113   -1.137548
  H     -1.257095    1.272351   -1.360070
  H      0.083104    2.788347   -0.000000
  H      0.322956    1.403343    2.130468
  C      0.002041   -1.088891    2.409560
  H      0.099169   -2.157234    2.232295
  H      0.832393   -0.749297    3.036020
  H     -0.930337   -0.900774    2.951735
  C      0.002037   -1.088891   -2.409560
  H      0.832398   -0.749309   -3.036016
  H      0.099148   -2.157235   -2.232295
  H     -0.930335   -0.900759   -2.951738

 Multiplicity           Mult            ....    1
 Number of Electrons    NEL             ....   62
 Basis Dimension        Dim             ....  320

ORBITAL ENERGIES
----------------

  NO   OCC          E(Eh)            E(eV)
   0   2.0000     -14.410930      -392.1413
   1   2.0000     -14.410911      -392.1408
   2   2.0000     -10.280029      -279.7338
   3   2.0000     -10.280021      -279.7336
   4   2.0000     -10.269364      -279.4436
   5   2.0000     -10.269363      -279.4436
   6   2.0000     -10.269269      -279.4410
   7   2.0000     -10.252319      -278.9798
   8   2.0000      -1.107376       -30.1332
   9   2.0000      -1.039213       -28.2784
  10   2.0000      -0.920354       -25.0441
  11   2.0000      -0.848361       -23.0851
  12   2.0000      -0.829100       -22.5610
  13   2.0000      -0.760542       -20.6954
  14   2.0000      -0.750893       -20.4328
  15   2.0000      -0.639447       -17.4002
  16   2.0000      -0.608694       -16.5634
  17   2.0000      -0.608058       -16.5461
  18   2.0000      -0.581862       -15.8333
  19   2.0000      -0.564889       -15.3714
  20   2.0000      -0.539608       -14.6835
  21   2.0000      -0.531822       -14.4716
  22   2.0000      -0.517939       -14.0938
  23   2.0000      -0.501548       -13.6478
  24   2.0000      -0.483858       -13.1664
  25   2.0000      -0.466458       -12.6930
  26   2.0000      -0.453897       -12.3512
  27   2.0000      -0.437283       -11.8991
  28   2.0000      -0.410723       -11.1763
  29   2.0000      -0.313707        -8.5364
  30   2.0000      -0.307495        -8.3674
  31   0.0000       0.107343         2.9210
  32   0.0000       0.124846         3.3972
  33   0.0000       0.142330         3.8730
  34   0.0000       0.158821         4.3217
  35   0.0000       0.174858         4.7581

MULLIKEN ATOMIC CHARGES
-----------------------
   0 C :   -0.170722
   1 C :   -0.341923
   2 C :   -0.170729
   3 C :   -0.205270
   4 H :    0.132045
   5 H :    0.141389
   6 H :    0.120070
   7 N :   -0.084230
   8 N :   -0.084222
   9 H :    0.132038
  10 H :    0.134765
  11 H :    0.141386
  12 C :   -0.266840
  13 H :    0.129501
  14 H :    0.134177
  15 H :    0.130864
  16 C :   -0.266840
  17 H :    0.134178
  18 H :    0.129500
  19 H :    0.130863
Sum of atomic charges:   -0.0000000

LOEWDIN ATOMIC CHARGES
----------------------
   0 C :   -0.252223
   1 C :   -0.436288
   2 C :   -0.252222
   3 C :   -0.253658
   4 H :    0.136647
   5 H :    0.141004
   6 H :    0.143787
   7 N :    0.123807
   8 N :    0.123807
   9 H :    0.136647
  10 H :    0.146936
  11 H :    0.141004
  12 C :   -0.296318
  13 H :    0.116523
  14 H :    0.114756
  15 H :    0.115415
  16 C :   -0.296318
  17 H :    0.114756
  18 H :    0.116523
  19 H :    0.115414

  Mayer bond orders larger than 0.100000
B(  0-C ,  3-C ) :   0.9784 B(  0-C ,  4-H ) :   0.9671 B(  0-C ,  7-N ) :   0.9067
B(  0-C , 11-H ) :   0.9699 B(  1-C ,  7-N ) :   1.2316 B(  1-C ,  8-N ) :   1.2316
B(  2-C ,  3-C ) :   0.9784 B(  2-C ,  5-H ) :   0.9699 B(  2-C ,  8-N ) :   0.9067
B(  2-C ,  9-H ) :   0.9671 B(  3-C ,  6-H ) :   0.9830 B(  3-C , 10-H ) :   0.9787
B(  7-N , 12-C ) :   0.9119 B(  8-N , 16-C ) :   0.9119 B( 12-C , 13-H ) :   0.9743
B( 12-C , 14-H ) :   0.9717 B( 12-C , 15-H ) :   0.9681 B( 16-C , 17-H ) :   0.9717
B( 16-C , 18-H ) :   0.9743 B( 16-C , 19-H ) :   0.9681

Dispersion correction           -0.002581983
FINAL SINGLE POINT ENERGY      -345.364043480742

DIPOLE MOMENT
-------------
                                X             Y             Z
Electronic contribution:      0.10017      -0.46015       0.00000
Nuclear contribution   :     -0.35420       2.27514      -0.00000
                        -----------------------------------------
Total Dipole Moment    :     -0.25404       1.81499       0.00000
                        -----------------------------------------
Magnitude (a.u.)       :      1.83268
Magnitude (Debye)      :      4.65830

Dispersion correction in the Hessian             ... Starting D4

VIBRATIONAL FREQUENCIES
-----------------------

Scaling factor for frequencies =  1.000000000  (already applied!)

   0:         0.00 cm**-1
   1:         0.00 cm**-1
   2:         0.00 cm**-1
   3:         0.00 cm**-1
   4:         0.00 cm**-1
   5:         0.00 cm**-1
   6:        95.69 cm**-1
   7:       103.99 cm**-1
   8:       125.94 cm**-1
   9:       204.53 cm**-1
  10:       278.07 cm**-1
  11:       283.24 cm**-1
  12:       329.24 cm**-1
  13:       437.23 cm**-1
  14:       456.78 cm**-1
  15:       481.37 cm**-1
  16:       523.19 cm**-1
  17:       617.15 cm**-1
  18:       807.67 cm**-1
  19:       883.26 cm**-1
  20:       910.62 cm**-1
  21:       948.53 cm**-1
  22:      1036.66 cm**-1
  23:      1071.77 cm**-1
  24:      1092.25 cm**-1
  25:      1123.25 cm**-1
  26:      1125.89 cm**-1
  27:      1154.86 cm**-1
  28:      1169.71 cm**-1
  29:      1216.29 cm**-1
  30:      1241.57 cm**-1
  31:      1272.15 cm**-1
  32:      1280.25 cm**-1
  33:      1333.30 cm**-1
  34:      1359.87 cm**-1
  35:      1397.81 cm**-1
  36:      1403.08 cm**-1
  37:      1437.95 cm**-1
  38:      1451.50 cm**-1
  39:      1457.53 cm**-1
  40:      1475.40 cm**-1
  41:      1478.60 cm**-1
  42:      1482.01 cm**-1
  43:      1483.29 cm**-1
  44:      1492.97 cm**-1
  45:      1499.52 cm**-1
  46:      1522.96 cm**-1
  47:      1583.28 cm**-1
  48:      3041.37 cm**-1
  49:      3042.42 cm**-1
  50:      3042.62 cm**-1
  51:      3046.94 cm**-1
  52:      3081.04 cm**-1
  53:      3098.52 cm**-1
  54:      3098.72 cm**-1
  55:      3109.42 cm**-1
  56:      3113.28 cm**-1
  57:      3144.82 cm**-1
  58:      3181.67 cm**-1
  59:      3181.73 cm**-1

IR SPECTRUM
-----------

 Mode   freq       eps      Int      T**2         TX        TY        TZ
       cm**-1   L/(mol*cm) km/mol    a.u.
----------------------------------------------------------------------------
  6:     95.69   0.000001    0.01  0.000004  (-0.000016 -0.000003  0.001876)
  7:    103.99   0.001241    6.27  0.003725  ( 0.060233  0.009841  0.000006)
  8:    125.94   0.000161    0.81  0.000398  (-0.000017 -0.000002  0.019945)
  9:    204.53   0.002248   11.36  0.003429  ( 0.058372  0.004676  0.000001)
 10:    278.07   0.002718   13.74  0.003050  ( 0.055205 -0.001639  0.000000)
 11:    283.24   0.000043    0.22  0.000047  ( 0.000003  0.000001 -0.006860)
 12:    329.24   0.000993    5.02  0.000941  ( 0.019419  0.023756  0.000000)
 13:    437.23   0.000175    0.88  0.000125  (-0.000000  0.000000 -0.011172)
 14:    456.78   0.000272    1.37  0.000186  ( 0.011588  0.007160 -0.000000)
 15:    481.37   0.006136   31.01  0.003978  ( 0.000000 -0.000000  0.063071)
 16:    523.19   0.000620    3.14  0.000370  ( 0.001131 -0.019205 -0.000000)
 17:    617.15   0.000068    0.35  0.000035  (-0.005599 -0.001798 -0.000000)
 18:    807.67   0.000738    3.73  0.000285  ( 0.001374  0.016827  0.000000)
 19:    883.26   0.002208   11.16  0.000780  ( 0.000000  0.000000 -0.027933)
 20:    910.62   0.000397    2.01  0.000136  ( 0.000000  0.000000 -0.011665)
 21:    948.53   0.000214    1.08  0.000071  ( 0.008397 -0.000073  0.000000)
 22:   1036.66   0.004575   23.12  0.001377  (-0.011612  0.035249  0.000000)
 23:   1071.77   0.000093    0.47  0.000027  ( 0.000000 -0.000000  0.005193)
 24:   1092.25   0.001611    8.14  0.000460  ( 0.000613  0.021444  0.000001)
 25:   1123.25   0.001667    8.42  0.000463  ( 0.019135  0.009846 -0.000003)
 26:   1125.89   0.005522   27.91  0.001531  ( 0.000001  0.000001  0.039123)
 27:   1154.86   0.000072    0.36  0.000019  ( 0.000001 -0.000000  0.004410)
 28:   1169.71   0.001414    7.15  0.000377  ( 0.018752  0.005066  0.000001)
 29:   1216.29   0.002181   11.02  0.000560  ( 0.000000  0.000000  0.023657)
 30:   1241.57   0.022784  115.14  0.005727  (-0.000000 -0.000000  0.075674)
 31:   1272.15   0.000521    2.63  0.000128  ( 0.000000  0.000000  0.011308)
 32:   1280.25   0.005982   30.23  0.001458  (-0.012320 -0.036142 -0.000001)
 33:   1333.30   0.001445    7.30  0.000338  (-0.011290  0.014516 -0.000000)
 34:   1359.87   0.030870  156.01  0.007084  ( 0.000000  0.000000 -0.084167)
 35:   1397.81   0.002536   12.82  0.000566  ( 0.000000  0.000000 -0.023794)
 36:   1403.08   0.007594   38.38  0.001689  (-0.004819  0.040815 -0.000001)
 37:   1437.95   0.016928   85.55  0.003674  (-0.000000  0.000000 -0.060611)
 38:   1451.50   0.000372    1.88  0.000080  (-0.000962 -0.008887 -0.000000)
 39:   1457.53   0.002125   10.74  0.000455  (-0.011315  0.018083 -0.000000)
 40:   1475.40   0.004647   23.49  0.000983  ( 0.000006  0.000000  0.031352)
 41:   1478.60   0.005543   28.01  0.001170  (-0.034062 -0.003096  0.000010)
 42:   1482.01   0.005959   30.11  0.001255  (-0.000003  0.000000 -0.035422)
 43:   1483.29   0.003489   17.63  0.000734  (-0.014133 -0.023116 -0.000001)
 44:   1492.97   0.000566    2.86  0.000118  (-0.000000  0.000001 -0.010874)
 45:   1499.52   0.000891    4.50  0.000186  ( 0.003360 -0.013199 -0.000000)
 46:   1522.96   0.003898   19.70  0.000799  (-0.007664  0.027203  0.000000)
 47:   1583.28   0.085144  430.28  0.016782  (-0.000000  0.000000  0.129545)
 48:   3041.37   0.023777  120.16  0.002440  (-0.000000 -0.000001  0.049393)
 49:   3042.42   0.026352  133.17  0.002703  (-0.000008  0.000011 -0.051990)
 50:   3042.62   0.005872   29.67  0.000602  (-0.014592  0.019732  0.000031)
 51:   3046.94   0.015905   80.38  0.001629  ( 0.035507 -0.019188 -0.000000)
 52:   3081.04   0.003896   19.69  0.000395  ( 0.017898  0.008615 -0.000000)
 53:   3098.52   0.001294    6.54  0.000130  (-0.000036 -0.000004 -0.011416)
 54:   3098.72   0.024395  123.28  0.002457  (-0.049206 -0.005960  0.000008)
 55:   3109.42   0.007667   38.75  0.000769  (-0.000000 -0.000000  0.027739)
 56:   3113.28   0.008134   41.11  0.000815  ( 0.023565  0.016125  0.000001)
 57:   3144.82   0.007689   38.86  0.000763  (-0.019067  0.019987 -0.000001)
 58:   3181.67   0.006729   34.01  0.000660  (-0.001694  0.025634 -0.000039)
 59:   3181.73   0.000683    3.45  0.000067  (-0.000008  0.000121  0.008186)

--------------------------
THERMOCHEMISTRY AT 298.15K
--------------------------

Temperature         ... 298.15 K
Pressure            ... 1.00 atm
Total Mass          ... 112.18 AMU

Throughout the following assumptions are being made:
  (1) The electronic state is orbitally nondegenerate
  (2) There are no thermally accessible electronically excited states
  (3) Hindered rotations indicated by low frequency modes are not
      treated as such but are treated as vibrations and this may
      cause some error
  (4) All equations used are the standard statistical mechanics
      equations for an ideal gas
  (5) All vibrations are strictly harmonic

freq.      95.69  E(vib)   ...       0.47
freq.     103.99  E(vib)   ...       0.46
freq.     125.94  E(vib)   ...       0.43
freq.     204.53  E(vib)   ...       0.35
freq.     278.07  E(vib)   ...       0.28
freq.     283.24  E(vib)   ...       0.28
freq.     329.24  E(vib)   ...       0.24
freq.     437.23  E(vib)   ...       0.17
freq.     456.78  E(vib)   ...       0.16
freq.     481.37  E(vib)   ...       0.15
freq.     523.19  E(vib)   ...       0.13
freq.     617.15  E(vib)   ...       0.09
freq.     807.67  E(vib)   ...       0.05
freq.     883.26  E(vib)   ...       0.04
freq.     910.62  E(vib)   ...       0.03
freq.     948.53  E(vib)   ...       0.03
freq.    1036.66  E(vib)   ...       0.02
freq.    1071.77  E(vib)   ...       0.02
freq.    1092.25  E(vib)   ...       0.02
freq.    1123.25  E(vib)   ...       0.01
freq.    1125.89  E(vib)   ...       0.01
freq.    1154.86  E(vib)   ...       0.01
freq.    1169.71  E(vib)   ...       0.01
freq.    1216.29  E(vib)   ...       0.01
freq.    1241.57  E(vib)   ...       0.01
freq.    1272.15  E(vib)   ...       0.01
freq.    1280.25  E(vib)   ...       0.01
freq.    1333.30  E(vib)   ...       0.01
freq.    1359.87  E(vib)   ...       0.01
freq.    1397.81  E(vib)   ...       0.00
freq.    1403.08  E(vib)   ...       0.00
freq.    1437.95  E(vib)   ...       0.00
freq.    1451.50  E(vib)   ...       0.00
freq.    1457.53  E(vib)   ...       0.00
freq.    1475.40  E(vib)   ...       0.00
freq.    1478.60  E(vib)   ...       0.00
freq.    1482.01  E(vib)   ...       0.00
freq.    1483.29  E(vib)   ...       0.00
freq.    1492.97  E(vib)   ...       0.00
freq.    1499.52  E(vib)   ...       0.00
freq.    1522.96  E(vib)   ...       0.00
freq.    1583.28  E(vib)   ...       0.00
freq.    3041.37  E(vib)   ...       0.00
freq.    3042.42  E(vib)   ...       0.00
freq.    3042.62  E(vib)   ...       0.00
freq.    3046.94  E(vib)   ...       0.00
freq.    3081.04  E(vib)   ...       0.00
freq.    3098.52  E(vib)   ...       0.00
freq.    3098.72  E(vib)   ...       0.00
freq.    3109.42  E(vib)   ...       0.00
freq.    3113.28  E(vib)   ...       0.00
freq.    3144.82  E(vib)   ...       0.00
freq.    3181.67  E(vib)   ...       0.00
freq.    3181.73  E(vib)   ...       0.00

------------
INNER ENERGY
------------

The inner energy is: U= E(el) + E(ZPE) + E(vib) + E(rot) + E(trans)
    E(el)   - is the total energy from the electronic structure calculation
              = E(kin-el) + E(nuc-el) + E(el-el) + E(nuc-nuc)
    E(ZPE)  - the the zero temperature vibrational energy from the frequency calculation
    E(vib)  - the the finite temperature correction to E(ZPE) due to population
              of excited vibrational states
    E(rot)  - is the rotational thermal energy
    E(trans)- is the translational thermal energy

Summary of contributions to the inner energy U:
Electronic energy                ...   -345.36404348 Eh
Zero point energy                ...      0.18068771 Eh     113.38 kcal/mol
Thermal vibrational correction   ...      0.00565999 Eh       3.55 kcal/mol
Thermal rotational correction    ...      0.00141627 Eh       0.89 kcal/mol
Thermal translational correction ...      0.00141627 Eh       0.89 kcal/mol
-----------------------------------------------------------------------
Total thermal energy                   -345.17486324 Eh

Summary of corrections to the electronic energy:
(perhaps to be used in another calculation)
Total thermal correction                  0.00849253 Eh       5.33 kcal/mol
Non-thermal (ZPE) correction              0.18068771 Eh     113.38 kcal/mol
-----------------------------------------------------------------------
Total correction                          0.18918024 Eh     118.71 kcal/mol

--------
ENTHALPY
--------

The enthalpy is H = U + kB*T
                kB is Boltzmann's constant
Total free energy                 ...   -345.17486324 Eh
Thermal Enthalpy correction       ...      0.00094421 Eh       0.59 kcal/mol
-----------------------------------------------------------------------
Total Enthalpy                    ...   -345.17391903 Eh

Note: Rotational entropy computed according to Herzberg
Infrared and Raman Spectra, Chapter V,1, Van Nostrand Reinhold, 1945
Point Group:  Cs, Symmetry Number:   1
Rotational constants in cm-1:     0.111658     0.059667     0.040994

Vibrational entropy computed according to the QRRHO of S. Grimme
Chem.Eur.J. 2012 18 9955

-------
ENTROPY
-------

The entropy contributions are T*S = T*(S(el)+S(vib)+S(rot)+S(trans))
     S(el)   - electronic entropy
     S(vib)  - vibrational entropy
     S(rot)  - rotational entropy
     S(trans)- translational entropy
The entropies will be listed as multiplied by the temperature to get
units of energy

Electronic entropy                ...      0.00000000 Eh      0.00 kcal/mol
Vibrational entropy               ...      0.00967571 Eh      6.07 kcal/mol
Rotational entropy                ...      0.01338460 Eh      8.40 kcal/mol
Translational entropy             ...      0.01903397 Eh     11.94 kcal/mol
-----------------------------------------------------------------------
Final entropy term                ...      0.04209428 Eh     26.41 kcal/mol

In case the symmetry of your molecule has not been determined correctly
or in case you have a reason to use a different symmetry number we print
out the resulting rotational entropy values for sn=1,12 :
 --------------------------------------------------------
|  sn= 1 | S(rot)=       0.01338460 Eh      8.40 kcal/mol|
|  sn= 2 | S(rot)=       0.01273015 Eh      7.99 kcal/mol|
|  sn= 3 | S(rot)=       0.01234731 Eh      7.75 kcal/mol|
|  sn= 4 | S(rot)=       0.01207569 Eh      7.58 kcal/mol|
|  sn= 5 | S(rot)=       0.01186500 Eh      7.45 kcal/mol|
|  sn= 6 | S(rot)=       0.01169286 Eh      7.34 kcal/mol|
|  sn= 7 | S(rot)=       0.01154731 Eh      7.25 kcal/mol|
|  sn= 8 | S(rot)=       0.01142123 Eh      7.17 kcal/mol|
|  sn= 9 | S(rot)=       0.01131003 Eh      7.10 kcal/mol|
|  sn=10 | S(rot)=       0.01121055 Eh      7.03 kcal/mol|
|  sn=11 | S(rot)=       0.01112056 Eh      6.98 kcal/mol|
|  sn=12 | S(rot)=       0.01103840 Eh      6.93 kcal/mol|
 --------------------------------------------------------

                             ****ORCA TERMINATED NORMALLY****
TOTAL RUN TIME: 0 days 0 hours 27 minutes 33 seconds 650 msec
