                         Program Version 5.0.4 -  RELEASE  -
|  1> # ORCA 5.0.4 - /users/bwb16179/postgrad/2024_06/pKa_Reviewer_Comments/Aq_Z=0/11_deprot.inp # write input file
|  2> # Basic Mode
|  3> #
|  4> ! Opt Freq wB97X Def2-TZVP D4 SlowConv TightSCF Defgrid2 Def2/J RIJCOSX CPCM(Water)
|  5>
|  6> %PAL NPROCS 4 END
|  7>
|  8> %maxcore 4500
|  9>
| 10> %geom
| 11> Maxiter 150
| 12> END
| 13>
| 14> * xyzfile 0 1 11_deprot.xyz
| 15>
| 16>                          ****END OF INPUT****
 Total Charge           Charge          ....    0
 Multiplicity           Mult            ....    1
 Number of Electrons    NEL             ....   56
Dispersion correction           -0.002175900
FINAL SINGLE POINT ENERGY      -307.227122669367
Dispersion correction            ... Starting D4
Dispersion correction           -0.002179704
FINAL SINGLE POINT ENERGY      -307.227916765075
Dispersion correction            ... Starting D4
Dispersion correction           -0.002178839
FINAL SINGLE POINT ENERGY      -307.227939765599
Dispersion correction            ... Starting D4
FINAL SINGLE POINT ENERGY      -307.227961213470
FINAL SINGLE POINT ENERGY      -307.227978761954
FINAL SINGLE POINT ENERGY      -307.227986881627
Dispersion correction           -0.002180545
FINAL SINGLE POINT ENERGY      -307.228003140893
Dispersion correction            ... Starting D4
Dispersion correction           -0.002180778
FINAL SINGLE POINT ENERGY      -307.228006430878
Dispersion correction            ... Starting D4
                    ***********************HURRAY********************

CARTESIAN COORDINATES (ANGSTROEM)
---------------------------------
  C      0.000000    0.000000    0.826896
  N     -0.020546    1.155333    0.146223
  N      0.020548   -1.155333    0.146223
  C      0.384759    1.404795   -1.237207
  C     -0.384759   -1.404795   -1.237208
  H      0.981902    2.318575   -1.255122
  H     -0.981901   -2.318576   -1.255122
  H      1.005738    0.595033   -1.609576
  H     -1.005738   -0.595033   -1.609575
  H     -0.466601    1.545639   -1.907412
  H      0.466601   -1.545638   -1.907413
  C     -0.203295    2.383615    0.902684
  C      0.203294   -2.383615    0.902684
  H     -0.460365    2.137484    1.929233
  H      0.460367   -2.137484    1.929233
  H      0.709847    2.987935    0.889912
  H     -0.709849   -2.987933    0.889915
  H     -1.010513    2.979490    0.467604
  H      1.010510   -2.979493    0.467604

 Multiplicity           Mult            ....    1
 Number of Electrons    NEL             ....   56
 Basis Dimension        Dim             ....  289

ORBITAL ENERGIES
----------------

  NO   OCC          E(Eh)            E(eV)
   0   2.0000     -14.414535      -392.2394
   1   2.0000     -14.414516      -392.2389
   2   2.0000     -10.273937      -279.5680
   3   2.0000     -10.273935      -279.5680
   4   2.0000     -10.271712      -279.5075
   5   2.0000     -10.268627      -279.4235
   6   2.0000     -10.268625      -279.4235
   7   2.0000      -1.097958       -29.8770
   8   2.0000      -1.040923       -28.3250
   9   2.0000      -0.850943       -23.1553
  10   2.0000      -0.845071       -22.9955
  11   2.0000      -0.830736       -22.6055
  12   2.0000      -0.762067       -20.7369
  13   2.0000      -0.660854       -17.9827
  14   2.0000      -0.610710       -16.6183
  15   2.0000      -0.588357       -16.0100
  16   2.0000      -0.584478       -15.9044
  17   2.0000      -0.564957       -15.3733
  18   2.0000      -0.538124       -14.6431
  19   2.0000      -0.525361       -14.2958
  20   2.0000      -0.507463       -13.8088
  21   2.0000      -0.495683       -13.4882
  22   2.0000      -0.484915       -13.1952
  23   2.0000      -0.479473       -13.0471
  24   2.0000      -0.457965       -12.4619
  25   2.0000      -0.414748       -11.2859
  26   2.0000      -0.335216        -9.1217
  27   2.0000      -0.289262        -7.8712
  28   0.0000       0.109123         2.9694
  29   0.0000       0.120258         3.2724
  30   0.0000       0.145042         3.9468
  31   0.0000       0.169236         4.6051
  32   0.0000       0.177740         4.8366

MULLIKEN ATOMIC CHARGES
-----------------------
   0 C :   -0.328443
   1 N :   -0.088392
   2 N :   -0.088384
   3 C :   -0.337526
   4 C :   -0.337530
   5 H :    0.146648
   6 H :    0.146654
   7 H :    0.154119
   8 H :    0.154121
   9 H :    0.156694
  10 H :    0.156694
  11 C :   -0.262870
  12 C :   -0.262871
  13 H :    0.127787
  14 H :    0.127789
  15 H :    0.130692
  16 H :    0.130691
  17 H :    0.137063
  18 H :    0.137063
Sum of atomic charges:   -0.0000000

LOEWDIN ATOMIC CHARGES
----------------------
   0 C :   -0.437661
   1 N :    0.100594
   2 N :    0.100594
   3 C :   -0.292824
   4 C :   -0.292824
   5 H :    0.123448
   6 H :    0.123448
   7 H :    0.125151
   8 H :    0.125151
   9 H :    0.117403
  10 H :    0.117403
  11 C :   -0.299115
  12 C :   -0.299115
  13 H :    0.114765
  14 H :    0.114765
  15 H :    0.113153
  16 H :    0.113153
  17 H :    0.116256
  18 H :    0.116256

  Mayer bond orders larger than 0.100000
B(  0-C ,  1-N ) :   1.2218 B(  0-C ,  2-N ) :   1.2218 B(  1-N ,  3-C ) :   0.8824
B(  1-N , 11-C ) :   0.9150 B(  2-N ,  4-C ) :   0.8824 B(  2-N , 12-C ) :   0.9150
B(  3-C ,  5-H ) :   0.9697 B(  3-C ,  7-H ) :   0.9685 B(  3-C ,  9-H ) :   0.9717
B(  4-C ,  6-H ) :   0.9697 B(  4-C ,  8-H ) :   0.9685 B(  4-C , 10-H ) :   0.9717
B( 11-C , 13-H ) :   0.9759 B( 11-C , 15-H ) :   0.9738 B( 11-C , 17-H ) :   0.9679
B( 12-C , 14-H ) :   0.9759 B( 12-C , 16-H ) :   0.9738 B( 12-C , 18-H ) :   0.9679

Dispersion correction           -0.002180872
FINAL SINGLE POINT ENERGY      -307.228007026518

DIPOLE MOMENT
-------------
                                X             Y             Z
Electronic contribution:      0.00000       0.00000       1.47976
Nuclear contribution   :     -0.00001       0.00000      -3.12271
                        -----------------------------------------
Total Dipole Moment    :     -0.00000       0.00000      -1.64295
                        -----------------------------------------
Magnitude (a.u.)       :      1.64295
Magnitude (Debye)      :      4.17604

Dispersion correction in the Hessian             ... Starting D4

VIBRATIONAL FREQUENCIES
-----------------------

Scaling factor for frequencies =  1.000000000  (already applied!)

   0:         0.00 cm**-1
   1:         0.00 cm**-1
   2:         0.00 cm**-1
   3:         0.00 cm**-1
   4:         0.00 cm**-1
   5:         0.00 cm**-1
   6:        79.65 cm**-1
   7:       154.32 cm**-1
   8:       180.57 cm**-1
   9:       209.52 cm**-1
  10:       223.00 cm**-1
  11:       266.00 cm**-1
  12:       288.05 cm**-1
  13:       324.73 cm**-1
  14:       352.17 cm**-1
  15:       427.48 cm**-1
  16:       434.48 cm**-1
  17:       504.51 cm**-1
  18:       618.27 cm**-1
  19:       880.22 cm**-1
  20:       905.03 cm**-1
  21:      1072.70 cm**-1
  22:      1074.74 cm**-1
  23:      1099.23 cm**-1
  24:      1122.00 cm**-1
  25:      1124.71 cm**-1
  26:      1163.94 cm**-1
  27:      1170.40 cm**-1
  28:      1174.96 cm**-1
  29:      1251.06 cm**-1
  30:      1319.61 cm**-1
  31:      1416.27 cm**-1
  32:      1420.17 cm**-1
  33:      1439.32 cm**-1
  34:      1442.02 cm**-1
  35:      1466.19 cm**-1
  36:      1475.88 cm**-1
  37:      1483.13 cm**-1
  38:      1483.62 cm**-1
  39:      1492.46 cm**-1
  40:      1493.36 cm**-1
  41:      1505.84 cm**-1
  42:      1505.87 cm**-1
  43:      1530.88 cm**-1
  44:      1574.92 cm**-1
  45:      3041.72 cm**-1
  46:      3043.51 cm**-1
  47:      3063.02 cm**-1
  48:      3067.24 cm**-1
  49:      3103.06 cm**-1
  50:      3103.13 cm**-1
  51:      3127.06 cm**-1
  52:      3129.47 cm**-1
  53:      3190.00 cm**-1
  54:      3190.09 cm**-1
  55:      3194.54 cm**-1
  56:      3197.22 cm**-1

IR SPECTRUM
-----------

 Mode   freq       eps      Int      T**2         TX        TY        TZ
       cm**-1   L/(mol*cm) km/mol    a.u.
----------------------------------------------------------------------------
  6:     79.65   0.000009    0.05  0.000036  ( 0.000000  0.000000  0.006003)
  7:    154.32   0.002326   11.75  0.004703  ( 0.068128 -0.007855 -0.000000)
  8:    180.57   0.000032    0.16  0.000055  (-0.000004 -0.000000 -0.007433)
  9:    209.52   0.000058    0.29  0.000087  ( 0.000001  0.000001 -0.009313)
 10:    223.00   0.001921    9.71  0.002689  ( 0.051139  0.008582  0.000000)
 11:    266.00   0.001588    8.02  0.001863  ( 0.037464 -0.021432 -0.000000)
 12:    288.05   0.001253    6.33  0.001357  (-0.000000 -0.000000 -0.036840)
 13:    324.73   0.000001    0.00  0.000001  (-0.000000  0.000000  0.000738)
 14:    352.17   0.005565   28.12  0.004931  (-0.024823  0.065689 -0.000000)
 15:    427.48   0.004552   23.00  0.003323  ( 0.030202  0.049098 -0.000000)
 16:    434.48   0.000008    0.04  0.000005  ( 0.000000  0.000000 -0.002337)
 17:    504.51   0.000681    3.44  0.000421  ( 0.008403 -0.018732  0.000000)
 18:    618.27   0.000477    2.41  0.000241  (-0.000000  0.000000  0.015517)
 19:    880.22   0.002443   12.35  0.000866  ( 0.000000 -0.000000  0.029432)
 20:    905.03   0.007385   37.32  0.002547  (-0.008229 -0.049788  0.000000)
 21:   1072.70   0.002228   11.26  0.000648  (-0.000000  0.000001  0.025460)
 22:   1074.74   0.001667    8.42  0.000484  ( 0.003426 -0.021730  0.000001)
 23:   1099.23   0.000016    0.08  0.000004  ( 0.000000 -0.000000  0.002106)
 24:   1122.00   0.000483    2.44  0.000134  ( 0.011551 -0.000965 -0.000000)
 25:   1124.71   0.000941    4.76  0.000261  (-0.000000  0.000000  0.016159)
 26:   1163.94   0.020211  102.14  0.005419  (-0.010727 -0.072827  0.000000)
 27:   1170.40   0.000130    0.66  0.000035  ( 0.000000 -0.000002  0.005897)
 28:   1174.96   0.016543   83.60  0.004394  ( 0.013890 -0.064814 -0.000000)
 29:   1251.06   0.000194    0.98  0.000048  ( 0.002149 -0.006617  0.000000)
 30:   1319.61   0.007953   40.19  0.001881  (-0.000000  0.000000  0.043367)
 31:   1416.27   0.000371    1.87  0.000082  (-0.000000 -0.000005 -0.009040)
 32:   1420.17   0.063815  322.50  0.014023  ( 0.005728  0.118278 -0.000000)
 33:   1439.32   0.000694    3.51  0.000150  ( 0.009071 -0.008256 -0.000000)
 34:   1442.02   0.000053    0.27  0.000011  ( 0.000000 -0.000000  0.003382)
 35:   1466.19   0.000166    0.84  0.000035  (-0.000000 -0.000000 -0.005938)
 36:   1475.88   0.000130    0.66  0.000028  (-0.005215 -0.000605  0.000000)
 37:   1483.13   0.000474    2.39  0.000100  ( 0.000001 -0.000001 -0.009983)
 38:   1483.62   0.009317   47.09  0.001960  ( 0.034831 -0.027323  0.000001)
 39:   1492.46   0.004552   23.00  0.000952  (-0.019211 -0.024140  0.000002)
 40:   1493.36   0.002016   10.19  0.000421  ( 0.000003  0.000003  0.020525)
 41:   1505.84   0.005753   29.07  0.001192  (-0.034505  0.001289  0.000037)
 42:   1505.87   0.003311   16.73  0.000686  (-0.000048  0.000001 -0.026195)
 43:   1530.88   0.000927    4.69  0.000189  (-0.000000  0.000001  0.013749)
 44:   1574.92   0.096617  488.26  0.019144  (-0.011196 -0.137909  0.000000)
 45:   3041.72   0.037908  191.57  0.003889  (-0.008435 -0.061790 -0.000000)
 46:   3043.51   0.002232   11.28  0.000229  ( 0.000000  0.000001 -0.015127)
 47:   3063.02   0.009225   46.62  0.000940  (-0.001899 -0.030598 -0.000001)
 48:   3067.24   0.016192   81.83  0.001647  (-0.000000 -0.000001  0.040588)
 49:   3103.06   0.000986    4.98  0.000099  (-0.000138  0.000006 -0.009957)
 50:   3103.13   0.021848  110.41  0.002197  (-0.046818  0.002268  0.000029)
 51:   3127.06   0.001341    6.78  0.000134  (-0.000001 -0.000001  0.011569)
 52:   3129.47   0.010629   53.72  0.001060  ( 0.026518  0.018887  0.000000)
 53:   3190.00   0.001517    7.66  0.000148  ( 0.008555  0.008671  0.000020)
 54:   3190.09   0.004983   25.18  0.000487  ( 0.000008  0.000008 -0.022078)
 55:   3194.54   0.006791   34.32  0.000663  (-0.016188  0.020033 -0.000001)
 56:   3197.22   0.000314    1.58  0.000031  (-0.000001  0.000001  0.005532)

--------------------------
THERMOCHEMISTRY AT 298.15K
--------------------------

Temperature         ... 298.15 K
Pressure            ... 1.00 atm
Total Mass          ... 100.16 AMU

Throughout the following assumptions are being made:
  (1) The electronic state is orbitally nondegenerate
  (2) There are no thermally accessible electronically excited states
  (3) Hindered rotations indicated by low frequency modes are not
      treated as such but are treated as vibrations and this may
      cause some error
  (4) All equations used are the standard statistical mechanics
      equations for an ideal gas
  (5) All vibrations are strictly harmonic

freq.      79.65  E(vib)   ...       0.49
freq.     154.32  E(vib)   ...       0.40
freq.     180.57  E(vib)   ...       0.37
freq.     209.52  E(vib)   ...       0.34
freq.     223.00  E(vib)   ...       0.33
freq.     266.00  E(vib)   ...       0.29
freq.     288.05  E(vib)   ...       0.27
freq.     324.73  E(vib)   ...       0.24
freq.     352.17  E(vib)   ...       0.23
freq.     427.48  E(vib)   ...       0.18
freq.     434.48  E(vib)   ...       0.17
freq.     504.51  E(vib)   ...       0.14
freq.     618.27  E(vib)   ...       0.09
freq.     880.22  E(vib)   ...       0.04
freq.     905.03  E(vib)   ...       0.03
freq.    1072.70  E(vib)   ...       0.02
freq.    1074.74  E(vib)   ...       0.02
freq.    1099.23  E(vib)   ...       0.02
freq.    1122.00  E(vib)   ...       0.01
freq.    1124.71  E(vib)   ...       0.01
freq.    1163.94  E(vib)   ...       0.01
freq.    1170.40  E(vib)   ...       0.01
freq.    1174.96  E(vib)   ...       0.01
freq.    1251.06  E(vib)   ...       0.01
freq.    1319.61  E(vib)   ...       0.01
freq.    1416.27  E(vib)   ...       0.00
freq.    1420.17  E(vib)   ...       0.00
freq.    1439.32  E(vib)   ...       0.00
freq.    1442.02  E(vib)   ...       0.00
freq.    1466.19  E(vib)   ...       0.00
freq.    1475.88  E(vib)   ...       0.00
freq.    1483.13  E(vib)   ...       0.00
freq.    1483.62  E(vib)   ...       0.00
freq.    1492.46  E(vib)   ...       0.00
freq.    1493.36  E(vib)   ...       0.00
freq.    1505.84  E(vib)   ...       0.00
freq.    1505.87  E(vib)   ...       0.00
freq.    1530.88  E(vib)   ...       0.00
freq.    1574.92  E(vib)   ...       0.00
freq.    3041.72  E(vib)   ...       0.00
freq.    3043.51  E(vib)   ...       0.00
freq.    3063.02  E(vib)   ...       0.00
freq.    3067.24  E(vib)   ...       0.00
freq.    3103.06  E(vib)   ...       0.00
freq.    3103.13  E(vib)   ...       0.00
freq.    3127.06  E(vib)   ...       0.00
freq.    3129.47  E(vib)   ...       0.00
freq.    3190.00  E(vib)   ...       0.00
freq.    3190.09  E(vib)   ...       0.00
freq.    3194.54  E(vib)   ...       0.00
freq.    3197.22  E(vib)   ...       0.00

------------
INNER ENERGY
------------

The inner energy is: U= E(el) + E(ZPE) + E(vib) + E(rot) + E(trans)
    E(el)   - is the total energy from the electronic structure calculation
              = E(kin-el) + E(nuc-el) + E(el-el) + E(nuc-nuc)
    E(ZPE)  - the the zero temperature vibrational energy from the frequency calculation
    E(vib)  - the the finite temperature correction to E(ZPE) due to population
              of excited vibrational states
    E(rot)  - is the rotational thermal energy
    E(trans)- is the translational thermal energy

Summary of contributions to the inner energy U:
Electronic energy                ...   -307.22800703 Eh
Zero point energy                ...      0.17223249 Eh     108.08 kcal/mol
Thermal vibrational correction   ...      0.00604775 Eh       3.80 kcal/mol
Thermal rotational correction    ...      0.00141627 Eh       0.89 kcal/mol
Thermal translational correction ...      0.00141627 Eh       0.89 kcal/mol
-----------------------------------------------------------------------
Total thermal energy                   -307.04689424 Eh

Summary of corrections to the electronic energy:
(perhaps to be used in another calculation)
Total thermal correction                  0.00888029 Eh       5.57 kcal/mol
Non-thermal (ZPE) correction              0.17223249 Eh     108.08 kcal/mol
-----------------------------------------------------------------------
Total correction                          0.18111278 Eh     113.65 kcal/mol

--------
ENTHALPY
--------

The enthalpy is H = U + kB*T
                kB is Boltzmann's constant
Total free energy                 ...   -307.04689424 Eh
Thermal Enthalpy correction       ...      0.00094421 Eh       0.59 kcal/mol
-----------------------------------------------------------------------
Total Enthalpy                    ...   -307.04595003 Eh

Note: Rotational entropy computed according to Herzberg
Infrared and Raman Spectra, Chapter V,1, Van Nostrand Reinhold, 1945
Point Group:  C2, Symmetry Number:   2
Rotational constants in cm-1:     0.163955     0.057098     0.045182

Vibrational entropy computed according to the QRRHO of S. Grimme
Chem.Eur.J. 2012 18 9955

-------
ENTROPY
-------

The entropy contributions are T*S = T*(S(el)+S(vib)+S(rot)+S(trans))
     S(el)   - electronic entropy
     S(vib)  - vibrational entropy
     S(rot)  - rotational entropy
     S(trans)- translational entropy
The entropies will be listed as multiplied by the temperature to get
units of energy

Electronic entropy                ...      0.00000000 Eh      0.00 kcal/mol
Vibrational entropy               ...      0.01023739 Eh      6.42 kcal/mol
Rotational entropy                ...      0.01252365 Eh      7.86 kcal/mol
Translational entropy             ...      0.01887358 Eh     11.84 kcal/mol
-----------------------------------------------------------------------
Final entropy term                ...      0.04163461 Eh     26.13 kcal/mol

In case the symmetry of your molecule has not been determined correctly
or in case you have a reason to use a different symmetry number we print
out the resulting rotational entropy values for sn=1,12 :
 --------------------------------------------------------
|  sn= 1 | S(rot)=       0.01317810 Eh      8.27 kcal/mol|
|  sn= 2 | S(rot)=       0.01252365 Eh      7.86 kcal/mol|
|  sn= 3 | S(rot)=       0.01214081 Eh      7.62 kcal/mol|
|  sn= 4 | S(rot)=       0.01186919 Eh      7.45 kcal/mol|
|  sn= 5 | S(rot)=       0.01165850 Eh      7.32 kcal/mol|
|  sn= 6 | S(rot)=       0.01148636 Eh      7.21 kcal/mol|
|  sn= 7 | S(rot)=       0.01134081 Eh      7.12 kcal/mol|
|  sn= 8 | S(rot)=       0.01121473 Eh      7.04 kcal/mol|
|  sn= 9 | S(rot)=       0.01110353 Eh      6.97 kcal/mol|
|  sn=10 | S(rot)=       0.01100405 Eh      6.91 kcal/mol|
|  sn=11 | S(rot)=       0.01091406 Eh      6.85 kcal/mol|
|  sn=12 | S(rot)=       0.01083190 Eh      6.80 kcal/mol|
 --------------------------------------------------------

-------------------
GIBBS FREE ENERGY

                             ****ORCA TERMINATED NORMALLY****
TOTAL RUN TIME: 0 days 0 hours 18 minutes 22 seconds 817 msec
