                         Program Version 5.0.4 -  RELEASE  -
|  1> # ORCA 5.0.4 - /users/bwb16179/postgrad/2024_06/pKa_Reviewer_Comments/Aq_Z=0/1_deprot.inp # write input file
|  2> # Basic Mode
|  3> #
|  4> ! Opt Freq wB97X Def2-TZVP D4 SlowConv TightSCF Defgrid2 Def2/J RIJCOSX CPCM(Water)
|  5>
|  6> %PAL NPROCS 4 END
|  7>
|  8> %maxcore 4500
|  9>
| 10> %geom
| 11> Maxiter 150
| 12> END
| 13>
| 14> * xyzfile 0 1 1_deprot.xyz
| 15>
| 16>                          ****END OF INPUT****
 Total Charge           Charge          ....    0
 Multiplicity           Mult            ....    1
 Number of Electrons    NEL             ....   52
Dispersion correction           -0.001728038
FINAL SINGLE POINT ENERGY      -304.841707898688
Dispersion correction            ... Starting D4
Dispersion correction           -0.001730046
FINAL SINGLE POINT ENERGY      -304.842363386750
Dispersion correction            ... Starting D4
Dispersion correction           -0.001730047
FINAL SINGLE POINT ENERGY      -304.842374011013
Dispersion correction            ... Starting D4
                    ***********************HURRAY********************

CARTESIAN COORDINATES (ANGSTROEM)
---------------------------------
  C     -0.000001    0.673552   -1.188019
  C     -0.000000   -0.673552   -1.188018
  N     -0.000000    1.058527    0.137888
  N     -0.000000   -1.058527    0.137888
  C     -0.000000    0.000000    0.983698
  H     -0.000001    1.382097   -2.000549
  H     -0.000000   -1.382098   -2.000548
  C      0.000000    2.444379    0.563794
  C      0.000000   -2.444379    0.563794
  H     -0.887977    2.956233    0.191291
  H     -0.887978   -2.956232    0.191292
  H      0.887979   -2.956231    0.191292
  H      0.887979    2.956231    0.191293
  H     -0.000001    2.468801    1.650706
  H      0.000000   -2.468802    1.650706

 Multiplicity           Mult            ....    1
 Number of Electrons    NEL             ....   52
 Basis Dimension        Dim             ....  265

ORBITAL ENERGIES
----------------

  NO   OCC          E(Eh)            E(eV)
   0   2.0000     -14.441306      -392.9679
   1   2.0000     -14.441275      -392.9671
   2   2.0000     -10.281300      -279.7684
   3   2.0000     -10.281295      -279.7683
   4   2.0000     -10.279749      -279.7262
   5   2.0000     -10.278984      -279.7054
   6   2.0000     -10.268451      -279.4188
   7   2.0000      -1.160570       -31.5807
   8   2.0000      -1.046734       -28.4831
   9   2.0000      -0.903362       -24.5817
  10   2.0000      -0.855970       -23.2921
  11   2.0000      -0.807682       -21.9781
  12   2.0000      -0.718108       -19.5407
  13   2.0000      -0.685811       -18.6619
  14   2.0000      -0.636597       -17.3227
  15   2.0000      -0.593651       -16.1541
  16   2.0000      -0.562720       -15.3124
  17   2.0000      -0.552534       -15.0352
  18   2.0000      -0.541767       -14.7422
  19   2.0000      -0.537060       -14.6141
  20   2.0000      -0.494505       -13.4562
  21   2.0000      -0.486705       -13.2439
  22   2.0000      -0.486494       -13.2382
  23   2.0000      -0.373103       -10.1526
  24   2.0000      -0.335341        -9.1251
  25   2.0000      -0.329796        -8.9742
  26   0.0000       0.108971         2.9653
  27   0.0000       0.113611         3.0915
  28   0.0000       0.140129         3.8131
  29   0.0000       0.143034         3.8922
  30   0.0000       0.174698         4.7538

MULLIKEN ATOMIC CHARGES
-----------------------
   0 C :   -0.145507
   1 C :   -0.145491
   2 N :   -0.055653
   3 N :   -0.055637
   4 C :   -0.332207
   5 H :    0.207020
   6 H :    0.207002
   7 C :   -0.294893
   8 C :   -0.294880
   9 H :    0.152812
  10 H :    0.152813
  11 H :    0.152815
  12 H :    0.152813
  13 H :    0.149497
  14 H :    0.149498
Sum of atomic charges:   -0.0000000

LOEWDIN ATOMIC CHARGES
----------------------
   0 C :   -0.218024
   1 C :   -0.218023
   2 N :    0.178529
   3 N :    0.178529
   4 C :   -0.428530
   5 H :    0.149933
   6 H :    0.149933
   7 C :   -0.268477
   8 C :   -0.268477
   9 H :    0.123487
  10 H :    0.123487
  11 H :    0.123487
  12 H :    0.123487
  13 H :    0.125330
  14 H :    0.125330

  Mayer bond orders larger than 0.100000
B(  0-C ,  1-C ) :   1.7407 B(  0-C ,  2-N ) :   1.1150 B(  0-C ,  5-H ) :   0.9404
B(  1-C ,  3-N ) :   1.1150 B(  1-C ,  6-H ) :   0.9404 B(  2-N ,  4-C ) :   1.2056
B(  2-N ,  7-C ) :   0.8844 B(  3-N ,  4-C ) :   1.2056 B(  3-N ,  8-C ) :   0.8844
B(  7-C ,  9-H ) :   0.9679 B(  7-C , 12-H ) :   0.9679 B(  7-C , 13-H ) :   0.9714
B(  8-C , 10-H ) :   0.9679 B(  8-C , 11-H ) :   0.9679 B(  8-C , 14-H ) :   0.9714

Dispersion correction           -0.001730018
FINAL SINGLE POINT ENERGY      -304.842376403651

DIPOLE MOMENT
-------------
                                X             Y             Z
Electronic contribution:     -0.00000      -0.00000      -1.55106
Nuclear contribution   :      0.00000      -0.00000       0.00440
                        -----------------------------------------
Total Dipole Moment    :      0.00000      -0.00000      -1.54666
                        -----------------------------------------
Magnitude (a.u.)       :      1.54666
Magnitude (Debye)      :      3.93131

Dispersion correction in the Hessian             ... Starting D4

VIBRATIONAL FREQUENCIES
-----------------------

Scaling factor for frequencies =  1.000000000  (already applied!)

   0:         0.00 cm**-1
   1:         0.00 cm**-1
   2:         0.00 cm**-1
   3:         0.00 cm**-1
   4:         0.00 cm**-1
   5:         0.00 cm**-1
   6:         4.47 cm**-1
   7:        19.93 cm**-1
   8:       186.86 cm**-1
   9:       270.36 cm**-1
  10:       289.46 cm**-1
  11:       441.40 cm**-1
  12:       624.24 cm**-1
  13:       636.63 cm**-1
  14:       639.94 cm**-1
  15:       754.68 cm**-1
  16:       760.08 cm**-1
  17:       881.66 cm**-1
  18:      1025.68 cm**-1
  19:      1034.48 cm**-1
  20:      1087.44 cm**-1
  21:      1089.29 cm**-1
  22:      1108.22 cm**-1
  23:      1155.28 cm**-1
  24:      1156.48 cm**-1
  25:      1245.76 cm**-1
  26:      1367.56 cm**-1
  27:      1396.29 cm**-1
  28:      1427.38 cm**-1
  29:      1438.74 cm**-1
  30:      1451.00 cm**-1
  31:      1475.47 cm**-1
  32:      1476.18 cm**-1
  33:      1490.63 cm**-1
  34:      1498.74 cm**-1
  35:      1506.27 cm**-1
  36:      1644.34 cm**-1
  37:      3080.35 cm**-1
  38:      3081.12 cm**-1
  39:      3154.33 cm**-1
  40:      3154.34 cm**-1
  41:      3192.41 cm**-1
  42:      3192.56 cm**-1
  43:      3281.52 cm**-1
  44:      3301.98 cm**-1

IR SPECTRUM
-----------

 Mode   freq       eps      Int      T**2         TX        TY        TZ
       cm**-1   L/(mol*cm) km/mol    a.u.
----------------------------------------------------------------------------
  6:      4.47   0.000000    0.00  0.000000  ( 0.000000  0.000000  0.000000)
  7:     19.93   0.000004    0.02  0.000059  ( 0.007703  0.000001 -0.000000)
  8:    186.86   0.007153   36.15  0.011945  (-0.109295  0.000000 -0.000000)
  9:    270.36   0.000000    0.00  0.000000  ( 0.000000 -0.000000 -0.000000)
 10:    289.46   0.001583    8.00  0.001707  (-0.000000  0.000000  0.041315)
 11:    441.40   0.002998   15.15  0.002120  (-0.000000 -0.046040  0.000000)
 12:    624.24   0.000467    2.36  0.000234  ( 0.000000 -0.000000  0.015282)
 13:    636.63   0.000048    0.24  0.000023  ( 0.004840  0.000000  0.000000)
 14:    639.94   0.000000    0.00  0.000000  ( 0.000000  0.000000  0.000000)
 15:    754.68   0.021587  109.09  0.008926  (-0.094479 -0.000000 -0.000000)
 16:    760.08   0.005638   28.49  0.002315  (-0.000000  0.048112 -0.000000)
 17:    881.66   0.000000    0.00  0.000000  (-0.000000  0.000000 -0.000000)
 18:   1025.68   0.000532    2.69  0.000162  ( 0.000000  0.012725  0.000000)
 19:   1034.48   0.000045    0.23  0.000014  (-0.000000  0.000000  0.003681)
 20:   1087.44   0.000016    0.08  0.000005  (-0.000000  0.002135 -0.000001)
 21:   1089.29   0.001066    5.39  0.000305  ( 0.000000  0.000000 -0.017478)
 22:   1108.22   0.001850    9.35  0.000521  ( 0.000000  0.000000  0.022826)
 23:   1155.28   0.000000    0.00  0.000000  ( 0.000000  0.000000 -0.000000)
 24:   1156.48   0.000000    0.00  0.000000  ( 0.000145 -0.000000  0.000000)
 25:   1245.76   0.015645   79.06  0.003919  (-0.000000  0.062602 -0.000000)
 26:   1367.56   0.000896    4.53  0.000204  (-0.000000 -0.014299  0.000000)
 27:   1396.29   0.000704    3.56  0.000157  ( 0.000000 -0.000000  0.012542)
 28:   1427.38   0.000211    1.07  0.000046  ( 0.000000 -0.000000 -0.006797)
 29:   1438.74   0.008453   42.72  0.001833  (-0.000000 -0.042819 -0.000000)
 30:   1451.00   0.000794    4.01  0.000171  (-0.000000  0.000000  0.013071)
 31:   1475.47   0.000000    0.00  0.000000  (-0.000003  0.000000  0.000000)
 32:   1476.18   0.006637   33.54  0.001403  (-0.037458 -0.000000  0.000000)
 33:   1490.63   0.007082   35.79  0.001483  ( 0.000000  0.038504  0.000000)
 34:   1498.74   0.008677   43.85  0.001807  ( 0.000000 -0.000000  0.042505)
 35:   1506.27   0.005612   28.36  0.001163  (-0.000000 -0.034099 -0.000000)
 36:   1644.34   0.000035    0.18  0.000007  ( 0.000000  0.000000 -0.002579)
 37:   3080.35   0.022227  112.32  0.002252  (-0.000000 -0.047453  0.000001)
 38:   3081.12   0.000040    0.20  0.000004  (-0.000000 -0.000023 -0.002002)
 39:   3154.33   0.008806   44.50  0.000871  (-0.029517  0.000000  0.000000)
 40:   3154.34   0.000122    0.62  0.000012  ( 0.003478 -0.000000  0.000000)
 41:   3192.41   0.003051   15.42  0.000298  (-0.000000  0.000001 -0.017269)
 42:   3192.56   0.000262    1.33  0.000026  ( 0.000000  0.005064  0.000004)
 43:   3281.52   0.001115    5.63  0.000106  (-0.000000  0.010297  0.000000)
 44:   3301.98   0.000024    0.12  0.000002  (-0.000000 -0.000000 -0.001510)

--------------------------
THERMOCHEMISTRY AT 298.15K
--------------------------

Temperature         ... 298.15 K
Pressure            ... 1.00 atm
Total Mass          ... 96.13 AMU

Throughout the following assumptions are being made:
  (1) The electronic state is orbitally nondegenerate
  (2) There are no thermally accessible electronically excited states
  (3) Hindered rotations indicated by low frequency modes are not
      treated as such but are treated as vibrations and this may
      cause some error
  (4) All equations used are the standard statistical mechanics
      equations for an ideal gas
  (5) All vibrations are strictly harmonic

freq.       4.47  E(vib)   ...       0.59
freq.      19.93  E(vib)   ...       0.56
freq.     186.86  E(vib)   ...       0.36
freq.     270.36  E(vib)   ...       0.29
freq.     289.46  E(vib)   ...       0.27
freq.     441.40  E(vib)   ...       0.17
freq.     624.24  E(vib)   ...       0.09
freq.     636.63  E(vib)   ...       0.09
freq.     639.94  E(vib)   ...       0.09
freq.     754.68  E(vib)   ...       0.06
freq.     760.08  E(vib)   ...       0.06
freq.     881.66  E(vib)   ...       0.04
freq.    1025.68  E(vib)   ...       0.02
freq.    1034.48  E(vib)   ...       0.02
freq.    1087.44  E(vib)   ...       0.02
freq.    1089.29  E(vib)   ...       0.02
freq.    1108.22  E(vib)   ...       0.02
freq.    1155.28  E(vib)   ...       0.01
freq.    1156.48  E(vib)   ...       0.01
freq.    1245.76  E(vib)   ...       0.01
freq.    1367.56  E(vib)   ...       0.01
freq.    1396.29  E(vib)   ...       0.00
freq.    1427.38  E(vib)   ...       0.00
freq.    1438.74  E(vib)   ...       0.00
freq.    1451.00  E(vib)   ...       0.00
freq.    1475.47  E(vib)   ...       0.00
freq.    1476.18  E(vib)   ...       0.00
freq.    1490.63  E(vib)   ...       0.00
freq.    1498.74  E(vib)   ...       0.00
freq.    1506.27  E(vib)   ...       0.00
freq.    1644.34  E(vib)   ...       0.00
freq.    3080.35  E(vib)   ...       0.00
freq.    3081.12  E(vib)   ...       0.00
freq.    3154.33  E(vib)   ...       0.00
freq.    3154.34  E(vib)   ...       0.00
freq.    3192.41  E(vib)   ...       0.00
freq.    3192.56  E(vib)   ...       0.00
freq.    3281.52  E(vib)   ...       0.00
freq.    3301.98  E(vib)   ...       0.00

------------
INNER ENERGY
------------

The inner energy is: U= E(el) + E(ZPE) + E(vib) + E(rot) + E(trans)
    E(el)   - is the total energy from the electronic structure calculation
              = E(kin-el) + E(nuc-el) + E(el-el) + E(nuc-nuc)
    E(ZPE)  - the the zero temperature vibrational energy from the frequency calculation
    E(vib)  - the the finite temperature correction to E(ZPE) due to population
              of excited vibrational states
    E(rot)  - is the rotational thermal energy
    E(trans)- is the translational thermal energy

Summary of contributions to the inner energy U:
Electronic energy                ...   -304.84237640 Eh
Zero point energy                ...      0.12763103 Eh      80.09 kcal/mol
Thermal vibrational correction   ...      0.00450632 Eh       2.83 kcal/mol
Thermal rotational correction    ...      0.00141627 Eh       0.89 kcal/mol
Thermal translational correction ...      0.00141627 Eh       0.89 kcal/mol
-----------------------------------------------------------------------
Total thermal energy                   -304.70740651 Eh

Summary of corrections to the electronic energy:
(perhaps to be used in another calculation)
Total thermal correction                  0.00733886 Eh       4.61 kcal/mol
Non-thermal (ZPE) correction              0.12763103 Eh      80.09 kcal/mol
-----------------------------------------------------------------------
Total correction                          0.13496989 Eh      84.69 kcal/mol

--------
ENTHALPY
--------

The enthalpy is H = U + kB*T
                kB is Boltzmann's constant
Total free energy                 ...   -304.70740651 Eh
Thermal Enthalpy correction       ...      0.00094421 Eh       0.59 kcal/mol
-----------------------------------------------------------------------
Total Enthalpy                    ...   -304.70646230 Eh

Note: Rotational entropy computed according to Herzberg
Infrared and Raman Spectra, Chapter V,1, Van Nostrand Reinhold, 1945
Point Group:  C2v, Symmetry Number:   2
Rotational constants in cm-1:     0.238851     0.070131     0.055345

Vibrational entropy computed according to the QRRHO of S. Grimme
Chem.Eur.J. 2012 18 9955

-------
ENTROPY
-------

The entropy contributions are T*S = T*(S(el)+S(vib)+S(rot)+S(trans))
     S(el)   - electronic entropy
     S(vib)  - vibrational entropy
     S(rot)  - rotational entropy
     S(trans)- translational entropy
The entropies will be listed as multiplied by the temperature to get
units of energy

Electronic entropy                ...      0.00000000 Eh      0.00 kcal/mol
Vibrational entropy               ...      0.00904541 Eh      5.68 kcal/mol
Rotational entropy                ...      0.01215318 Eh      7.63 kcal/mol
Translational entropy             ...      0.01881539 Eh     11.81 kcal/mol
-----------------------------------------------------------------------
Final entropy term                ...      0.04001399 Eh     25.11 kcal/mol

In case the symmetry of your molecule has not been determined correctly
or in case you have a reason to use a different symmetry number we print
out the resulting rotational entropy values for sn=1,12 :
 --------------------------------------------------------
|  sn= 1 | S(rot)=       0.01280764 Eh      8.04 kcal/mol|
|  sn= 2 | S(rot)=       0.01215318 Eh      7.63 kcal/mol|
|  sn= 3 | S(rot)=       0.01177035 Eh      7.39 kcal/mol|
|  sn= 4 | S(rot)=       0.01149873 Eh      7.22 kcal/mol|
|  sn= 5 | S(rot)=       0.01128804 Eh      7.08 kcal/mol|
|  sn= 6 | S(rot)=       0.01111590 Eh      6.98 kcal/mol|
|  sn= 7 | S(rot)=       0.01097035 Eh      6.88 kcal/mol|
|  sn= 8 | S(rot)=       0.01084427 Eh      6.80 kcal/mol|
|  sn= 9 | S(rot)=       0.01073306 Eh      6.74 kcal/mol|
|  sn=10 | S(rot)=       0.01063358 Eh      6.67 kcal/mol|
|  sn=11 | S(rot)=       0.01054359 Eh      6.62 kcal/mol|
|  sn=12 | S(rot)=       0.01046144 Eh      6.56 kcal/mol|
 --------------------------------------------------------

-------------------
GIBBS FREE ENERGY
-------------------

The Gibbs free energy is G = H - T*S

Total enthalpy                    ...   -304.70646230 Eh
Total entropy correction          ...     -0.04001399 Eh    -25.11 kcal/mol
-----------------------------------------------------------------------
Final Gibbs free energy         ...   -304.74647629 Eh

For completeness - the Gibbs free energy minus the electronic energy
G-E(el)                           ...      0.09590012 Eh     60.18 kcal/mol

                             ****ORCA TERMINATED NORMALLY****
TOTAL RUN TIME: 0 days 0 hours 10 minutes 6 seconds 709 msec
