                         Program Version 5.0.4 -  RELEASE  -
|  1> # ORCA 5.0.4 - /users/bwb16179/postgrad/2024_06/pKa_Reviewer_Comments/Aq_Z=0/2_deprot.inp # write input file
|  2> # Basic Mode
|  3> #
|  4> ! Opt Freq wB97X Def2-TZVP D4 SlowConv TightSCF Defgrid2 Def2/J RIJCOSX CPCM(Water)
|  5>
|  6> %PAL NPROCS 4 END
|  7>
|  8> %maxcore 4500
|  9>
| 10> %geom
| 11> Maxiter 150
| 12> END
| 13>
| 14> * xyzfile 0 1 2_deprot.xyz
| 15>
| 16>                          ****END OF INPUT****
 Total Charge           Charge          ....    0
 Multiplicity           Mult            ....    1
 Number of Electrons    NEL             ....   68
Dispersion correction           -0.002983146
FINAL SINGLE POINT ENERGY      -383.490506644892
Dispersion correction            ... Starting D4
Dispersion correction           -0.002989215
FINAL SINGLE POINT ENERGY      -383.491352809850
Dispersion correction            ... Starting D4
Dispersion correction           -0.002989630
FINAL SINGLE POINT ENERGY      -383.491364733518
Dispersion correction            ... Starting D4
                    ***********************HURRAY********************

CARTESIAN COORDINATES (ANGSTROEM)
---------------------------------
  C      0.000001    0.676069   -0.621084
  C      0.000001   -0.676068   -0.621084
  N      0.000000    1.056652    0.715309
  N      0.000001   -1.056652    0.715309
  C     -0.000000   -0.000000    1.560699
  C     -0.000000    2.438441    1.148522
  C      0.000001   -2.438441    1.148522
  H     -0.886904    2.957514    0.781272
  H     -0.886903   -2.957514    0.781272
  H      0.886905   -2.957514    0.781273
  H      0.886904    2.957515    0.781274
  H     -0.000002    2.454152    2.235516
  H     -0.000000   -2.454152    2.235516
  C      0.000000    1.657807   -1.738882
  C     -0.000000   -1.657807   -1.738883
  H      0.881958    2.301995   -1.704474
  H      0.881955   -2.301997   -1.704473
  H     -0.881958   -2.301994   -1.704473
  H     -0.881956    2.301997   -1.704472
  H     -0.000001    1.136447   -2.695500
  H      0.000000   -1.136447   -2.695500

 Multiplicity           Mult            ....    1
 Number of Electrons    NEL             ....   68
 Basis Dimension        Dim             ....  351

ORBITAL ENERGIES
----------------

  NO   OCC          E(Eh)            E(eV)
   0   2.0000     -14.433181      -392.7468
   1   2.0000     -14.433149      -392.7460
   2   2.0000     -10.279118      -279.7090
   3   2.0000     -10.279112      -279.7089
   4   2.0000     -10.278664      -279.6967
   5   2.0000     -10.277927      -279.6766
   6   2.0000     -10.262360      -279.2530
   7   2.0000     -10.252937      -278.9966
   8   2.0000     -10.252926      -278.9963
   9   2.0000      -1.154220       -31.4079
  10   2.0000      -1.043347       -28.3909
  11   2.0000      -0.923858       -25.1395
  12   2.0000      -0.877638       -23.8817
  13   2.0000      -0.860572       -23.4174
  14   2.0000      -0.793743       -21.5988
  15   2.0000      -0.786123       -21.3915
  16   2.0000      -0.686511       -18.6809
  17   2.0000      -0.680392       -18.5144
  18   2.0000      -0.613115       -16.6837
  19   2.0000      -0.598605       -16.2889
  20   2.0000      -0.555842       -15.1252
  21   2.0000      -0.546737       -14.8775
  22   2.0000      -0.533696       -14.5226
  23   2.0000      -0.523915       -14.2564
  24   2.0000      -0.522597       -14.2206
  25   2.0000      -0.510316       -13.8864
  26   2.0000      -0.509169       -13.8552
  27   2.0000      -0.491783       -13.3821
  28   2.0000      -0.475457       -12.9378
  29   2.0000      -0.474238       -12.9047
  30   2.0000      -0.473150       -12.8751
  31   2.0000      -0.363669        -9.8959
  32   2.0000      -0.329630        -8.9697
  33   2.0000      -0.306522        -8.3409
  34   0.0000       0.117362         3.1936
  35   0.0000       0.117867         3.2073
  36   0.0000       0.133969         3.6455
  37   0.0000       0.135531         3.6880
  38   0.0000       0.165223         4.4959

MULLIKEN ATOMIC CHARGES
-----------------------
   0 C :   -0.010208
   1 C :   -0.010268
   2 N :   -0.054064
   3 N :   -0.054048
   4 C :   -0.349558
   5 C :   -0.309142
   6 C :   -0.309166
   7 H :    0.151197
   8 H :    0.151201
   9 H :    0.151201
  10 H :    0.151197
  11 H :    0.150354
  12 H :    0.150354
  13 C :   -0.342363
  14 C :   -0.342375
  15 H :    0.149066
  16 H :    0.149064
  17 H :    0.149063
  18 H :    0.149069
  19 H :    0.139716
  20 H :    0.139708
Sum of atomic charges:    0.0000000

LOEWDIN ATOMIC CHARGES
----------------------
   0 C :   -0.225436
   1 C :   -0.225436
   2 N :    0.196176
   3 N :    0.196177
   4 C :   -0.436788
   5 C :   -0.269839
   6 C :   -0.269840
   7 H :    0.122814
   8 H :    0.122815
   9 H :    0.122814
  10 H :    0.122814
  11 H :    0.125142
  12 H :    0.125143
  13 C :   -0.257265
  14 C :   -0.257265
  15 H :    0.133957
  16 H :    0.133957
  17 H :    0.133957
  18 H :    0.133957
  19 H :    0.136072
  20 H :    0.136072

  Mayer bond orders larger than 0.100000
B(  0-C ,  1-C ) :   1.7663 B(  0-C ,  2-N ) :   1.1262 B(  0-C , 13-C ) :   0.8614
B(  1-C ,  3-N ) :   1.1263 B(  1-C , 14-C ) :   0.8614 B(  2-N ,  4-C ) :   1.1935
B(  2-N ,  5-C ) :   0.8799 B(  3-N ,  4-C ) :   1.1935 B(  3-N ,  6-C ) :   0.8799
B(  5-C ,  7-H ) :   0.9689 B(  5-C , 10-H ) :   0.9689 B(  5-C , 11-H ) :   0.9705
B(  6-C ,  8-H ) :   0.9689 B(  6-C ,  9-H ) :   0.9689 B(  6-C , 12-H ) :   0.9705
B( 13-C , 15-H ) :   0.9773 B( 13-C , 18-H ) :   0.9773 B( 13-C , 19-H ) :   0.9947
B( 14-C , 16-H ) :   0.9773 B( 14-C , 17-H ) :   0.9773 B( 14-C , 20-H ) :   0.9947

Dispersion correction           -0.002989675
FINAL SINGLE POINT ENERGY      -383.491367601402

DIPOLE MOMENT
-------------
                                X             Y             Z
Electronic contribution:      0.00000      -0.00000       2.88719
Nuclear contribution   :     -0.00000       0.00000      -4.77645
                        -----------------------------------------
Total Dipole Moment    :     -0.00000       0.00000      -1.88925
                        -----------------------------------------
Magnitude (a.u.)       :      1.88925
Magnitude (Debye)      :      4.80210

Dispersion correction in the Hessian             ... Starting D4

VIBRATIONAL FREQUENCIES
-----------------------

Scaling factor for frequencies =  1.000000000  (already applied!)

   0:         0.00 cm**-1
   1:         0.00 cm**-1
   2:         0.00 cm**-1
   3:         0.00 cm**-1
   4:         0.00 cm**-1
   5:         0.00 cm**-1
   6:        97.87 cm**-1
   7:       102.91 cm**-1
   8:       137.02 cm**-1
   9:       165.42 cm**-1
  10:       175.46 cm**-1
  11:       177.01 cm**-1
  12:       280.40 cm**-1
  13:       281.06 cm**-1
  14:       292.35 cm**-1
  15:       298.60 cm**-1
  16:       320.60 cm**-1
  17:       551.14 cm**-1
  18:       580.50 cm**-1
  19:       622.87 cm**-1
  20:       637.94 cm**-1
  21:       684.28 cm**-1
  22:       729.05 cm**-1
  23:       867.17 cm**-1
  24:       979.62 cm**-1
  25:      1065.41 cm**-1
  26:      1078.83 cm**-1
  27:      1083.57 cm**-1
  28:      1091.36 cm**-1
  29:      1121.56 cm**-1
  30:      1154.94 cm**-1
  31:      1155.35 cm**-1
  32:      1179.77 cm**-1
  33:      1253.94 cm**-1
  34:      1393.67 cm**-1
  35:      1403.37 cm**-1
  36:      1425.65 cm**-1
  37:      1430.03 cm**-1
  38:      1447.65 cm**-1
  39:      1450.88 cm**-1
  40:      1459.05 cm**-1
  41:      1462.40 cm**-1
  42:      1465.41 cm**-1
  43:      1466.78 cm**-1
  44:      1476.23 cm**-1
  45:      1476.80 cm**-1
  46:      1486.77 cm**-1
  47:      1494.88 cm**-1
  48:      1503.78 cm**-1
  49:      1505.26 cm**-1
  50:      1745.04 cm**-1
  51:      3063.92 cm**-1
  52:      3065.20 cm**-1
  53:      3074.04 cm**-1
  54:      3075.08 cm**-1
  55:      3126.07 cm**-1
  56:      3126.28 cm**-1
  57:      3143.77 cm**-1
  58:      3143.79 cm**-1
  59:      3163.44 cm**-1
  60:      3166.59 cm**-1
  61:      3190.37 cm**-1
  62:      3190.59 cm**-1

IR SPECTRUM
-----------

 Mode   freq       eps      Int      T**2         TX        TY        TZ
       cm**-1   L/(mol*cm) km/mol    a.u.
----------------------------------------------------------------------------
  6:     97.87   0.000252    1.27  0.000803  (-0.028346  0.000000  0.000000)
  7:    102.91   0.000000    0.00  0.000000  (-0.000002  0.000000  0.000000)
  8:    137.02   0.000000    0.00  0.000000  ( 0.000001  0.000000  0.000000)
  9:    165.42   0.000910    4.60  0.001716  (-0.041429 -0.000000 -0.000000)
 10:    175.46   0.000000    0.00  0.000000  ( 0.000015 -0.000000 -0.000000)
 11:    177.01   0.003797   19.19  0.006694  ( 0.081816  0.000000 -0.000000)
 12:    280.40   0.000676    3.42  0.000753  (-0.000000  0.027435  0.000002)
 13:    281.06   0.000133    0.67  0.000148  ( 0.000000  0.000006 -0.012156)
 14:    292.35   0.000140    0.71  0.000150  (-0.012231 -0.000000  0.000000)
 15:    298.60   0.001277    6.46  0.001335  ( 0.000000  0.000000  0.036539)
 16:    320.60   0.000000    0.00  0.000000  ( 0.000000  0.000000  0.000000)
 17:    551.14   0.000339    1.71  0.000192  ( 0.000000 -0.013846 -0.000000)
 18:    580.50   0.001383    6.99  0.000744  (-0.000000  0.027268 -0.000000)
 19:    622.87   0.000325    1.64  0.000163  ( 0.000000 -0.000000 -0.012762)
 20:    637.94   0.001385    7.00  0.000678  ( 0.026030  0.000002  0.000000)
 21:    684.28   0.000000    0.00  0.000000  (-0.000000  0.000001 -0.000000)
 22:    729.05   0.001592    8.05  0.000681  (-0.000000 -0.000000 -0.026105)
 23:    867.17   0.005892   29.78  0.002120  (-0.000000  0.046047 -0.000000)
 24:    979.62   0.000213    1.08  0.000068  (-0.000000 -0.000000 -0.008240)
 25:   1065.41   0.000432    2.18  0.000127  ( 0.011249  0.000000 -0.000000)
 26:   1078.83   0.000120    0.61  0.000035  ( 0.000000  0.005893  0.000000)
 27:   1083.57   0.000000    0.00  0.000000  (-0.000000  0.000000  0.000000)
 28:   1091.36   0.000075    0.38  0.000021  (-0.000000 -0.000000  0.004624)
 29:   1121.56   0.000028    0.14  0.000008  ( 0.000000  0.002774 -0.000000)
 30:   1154.94   0.000000    0.00  0.000000  (-0.000000  0.000000 -0.000000)
 31:   1155.35   0.000003    0.01  0.000001  ( 0.000893 -0.000000 -0.000000)
 32:   1179.77   0.000371    1.88  0.000098  ( 0.000000 -0.000000 -0.009912)
 33:   1253.94   0.001947    9.84  0.000485  ( 0.000000  0.022013  0.000000)
 34:   1393.67   0.001131    5.72  0.000253  ( 0.000000 -0.000000 -0.015916)
 35:   1403.37   0.000012    0.06  0.000003  ( 0.000000  0.001612 -0.000000)
 36:   1425.65   0.000498    2.52  0.000109  (-0.000000 -0.000001 -0.010437)
 37:   1430.03   0.027481  138.88  0.005997  (-0.000000  0.077440 -0.000000)
 38:   1447.65   0.000686    3.46  0.000148  (-0.000000  0.012157 -0.000000)
 39:   1450.88   0.001072    5.42  0.000231  ( 0.000000 -0.000000 -0.015183)
 40:   1459.05   0.006265   31.66  0.001340  (-0.000000 -0.000000  0.036604)
 41:   1462.40   0.009435   47.68  0.002013  ( 0.000000  0.044871 -0.000000)
 42:   1465.41   0.002534   12.81  0.000540  (-0.023232  0.000000  0.000000)
 43:   1466.78   0.000000    0.00  0.000000  (-0.000001  0.000000 -0.000000)
 44:   1476.23   0.000000    0.00  0.000000  ( 0.000003  0.000000  0.000000)
 45:   1476.80   0.010053   50.80  0.002124  (-0.046090 -0.000000 -0.000000)
 46:   1486.77   0.003032   15.32  0.000636  ( 0.000000 -0.000001 -0.025227)
 47:   1494.88   0.002308   11.66  0.000482  (-0.000000  0.021950 -0.000001)
 48:   1503.78   0.004808   24.30  0.000998  (-0.000000  0.000001  0.031586)
 49:   1505.26   0.000939    4.75  0.000195  (-0.000000 -0.013953  0.000002)
 50:   1745.04   0.001768    8.93  0.000316  ( 0.000000  0.000000  0.017780)
 51:   3063.92   0.009545   48.24  0.000972  (-0.000000 -0.031179 -0.000002)
 52:   3065.20   0.004682   23.66  0.000477  (-0.000000 -0.000002  0.021834)
 53:   3074.04   0.023046  116.47  0.002340  ( 0.000000 -0.048369 -0.000000)
 54:   3075.08   0.000000    0.00  0.000000  (-0.000000 -0.000004 -0.000190)
 55:   3126.07   0.007542   38.12  0.000753  (-0.027439  0.000000 -0.000000)
 56:   3126.28   0.000000    0.00  0.000000  ( 0.000006  0.000000  0.000000)
 57:   3143.77   0.010220   51.65  0.001014  (-0.031851 -0.000000 -0.000000)
 58:   3143.79   0.000000    0.00  0.000000  ( 0.000102 -0.000000 -0.000000)
 59:   3163.44   0.003024   15.28  0.000298  (-0.000000 -0.017272  0.000002)
 60:   3166.59   0.004236   21.41  0.000417  ( 0.000000 -0.000002 -0.020431)
 61:   3190.37   0.003658   18.48  0.000358  ( 0.000000  0.000000 -0.018915)
 62:   3190.59   0.000185    0.94  0.000018  ( 0.000000  0.004256  0.000001)

--------------------------
THERMOCHEMISTRY AT 298.15K
--------------------------

Temperature         ... 298.15 K
Pressure            ... 1.00 atm
Total Mass          ... 124.19 AMU

Throughout the following assumptions are being made:
  (1) The electronic state is orbitally nondegenerate
  (2) There are no thermally accessible electronically excited states
  (3) Hindered rotations indicated by low frequency modes are not
      treated as such but are treated as vibrations and this may
      cause some error
  (4) All equations used are the standard statistical mechanics
      equations for an ideal gas
  (5) All vibrations are strictly harmonic

freq.      97.87  E(vib)   ...       0.46
freq.     102.91  E(vib)   ...       0.46
freq.     137.02  E(vib)   ...       0.42
freq.     165.42  E(vib)   ...       0.39
freq.     175.46  E(vib)   ...       0.38
freq.     177.01  E(vib)   ...       0.38
freq.     280.40  E(vib)   ...       0.28
freq.     281.06  E(vib)   ...       0.28
freq.     292.35  E(vib)   ...       0.27
freq.     298.60  E(vib)   ...       0.26
freq.     320.60  E(vib)   ...       0.25
freq.     551.14  E(vib)   ...       0.12
freq.     580.50  E(vib)   ...       0.11
freq.     622.87  E(vib)   ...       0.09
freq.     637.94  E(vib)   ...       0.09
freq.     684.28  E(vib)   ...       0.07
freq.     729.05  E(vib)   ...       0.06
freq.     867.17  E(vib)   ...       0.04
freq.     979.62  E(vib)   ...       0.03
freq.    1065.41  E(vib)   ...       0.02
freq.    1078.83  E(vib)   ...       0.02
freq.    1083.57  E(vib)   ...       0.02
freq.    1091.36  E(vib)   ...       0.02
freq.    1121.56  E(vib)   ...       0.01
freq.    1154.94  E(vib)   ...       0.01
freq.    1155.35  E(vib)   ...       0.01
freq.    1179.77  E(vib)   ...       0.01
freq.    1253.94  E(vib)   ...       0.01
freq.    1393.67  E(vib)   ...       0.00
freq.    1403.37  E(vib)   ...       0.00
freq.    1425.65  E(vib)   ...       0.00
freq.    1430.03  E(vib)   ...       0.00
freq.    1447.65  E(vib)   ...       0.00
freq.    1450.88  E(vib)   ...       0.00
freq.    1459.05  E(vib)   ...       0.00
freq.    1462.40  E(vib)   ...       0.00
freq.    1465.41  E(vib)   ...       0.00
freq.    1466.78  E(vib)   ...       0.00
freq.    1476.23  E(vib)   ...       0.00
freq.    1476.80  E(vib)   ...       0.00
freq.    1486.77  E(vib)   ...       0.00
freq.    1494.88  E(vib)   ...       0.00
freq.    1503.78  E(vib)   ...       0.00
freq.    1505.26  E(vib)   ...       0.00
freq.    1745.04  E(vib)   ...       0.00
freq.    3063.92  E(vib)   ...       0.00
freq.    3065.20  E(vib)   ...       0.00
freq.    3074.04  E(vib)   ...       0.00
freq.    3075.08  E(vib)   ...       0.00
freq.    3126.07  E(vib)   ...       0.00
freq.    3126.28  E(vib)   ...       0.00
freq.    3143.77  E(vib)   ...       0.00
freq.    3143.79  E(vib)   ...       0.00
freq.    3163.44  E(vib)   ...       0.00
freq.    3166.59  E(vib)   ...       0.00
freq.    3190.37  E(vib)   ...       0.00
freq.    3190.59  E(vib)   ...       0.00

------------
INNER ENERGY
------------

The inner energy is: U= E(el) + E(ZPE) + E(vib) + E(rot) + E(trans)
    E(el)   - is the total energy from the electronic structure calculation
              = E(kin-el) + E(nuc-el) + E(el-el) + E(nuc-nuc)
    E(ZPE)  - the the zero temperature vibrational energy from the frequency calculation
    E(vib)  - the the finite temperature correction to E(ZPE) due to population
              of excited vibrational states
    E(rot)  - is the rotational thermal energy
    E(trans)- is the translational thermal energy

Summary of contributions to the inner energy U:
Electronic energy                ...   -383.49136760 Eh
Zero point energy                ...      0.18405040 Eh     115.49 kcal/mol
Thermal vibrational correction   ...      0.00735349 Eh       4.61 kcal/mol
Thermal rotational correction    ...      0.00141627 Eh       0.89 kcal/mol
Thermal translational correction ...      0.00141627 Eh       0.89 kcal/mol
-----------------------------------------------------------------------
Total thermal energy                   -383.29713117 Eh

Summary of corrections to the electronic energy:
(perhaps to be used in another calculation)
Total thermal correction                  0.01018603 Eh       6.39 kcal/mol
Non-thermal (ZPE) correction              0.18405040 Eh     115.49 kcal/mol
-----------------------------------------------------------------------
Total correction                          0.19423643 Eh     121.88 kcal/mol

--------
ENTHALPY
--------

The enthalpy is H = U + kB*T
                kB is Boltzmann's constant
Total free energy                 ...   -383.29713117 Eh
Thermal Enthalpy correction       ...      0.00094421 Eh       0.59 kcal/mol
-----------------------------------------------------------------------
Total Enthalpy                    ...   -383.29618696 Eh

Note: Rotational entropy computed according to Herzberg
Infrared and Raman Spectra, Chapter V,1, Van Nostrand Reinhold, 1945
Point Group:  C2v, Symmetry Number:   2
Rotational constants in cm-1:     0.083379     0.051270     0.032521

Vibrational entropy computed according to the QRRHO of S. Grimme
Chem.Eur.J. 2012 18 9955

-------
ENTROPY
-------

The entropy contributions are T*S = T*(S(el)+S(vib)+S(rot)+S(trans))
     S(el)   - electronic entropy
     S(vib)  - vibrational entropy
     S(rot)  - rotational entropy
     S(trans)- translational entropy
The entropies will be listed as multiplied by the temperature to get
units of energy

Electronic entropy                ...      0.00000000 Eh      0.00 kcal/mol
Vibrational entropy               ...      0.01281488 Eh      8.04 kcal/mol
Rotational entropy                ...      0.01304893 Eh      8.19 kcal/mol
Translational entropy             ...      0.01917803 Eh     12.03 kcal/mol
-----------------------------------------------------------------------
Final entropy term                ...      0.04504184 Eh     28.26 kcal/mol

In case the symmetry of your molecule has not been determined correctly
or in case you have a reason to use a different symmetry number we print
out the resulting rotational entropy values for sn=1,12 :
 --------------------------------------------------------
|  sn= 1 | S(rot)=       0.01370339 Eh      8.60 kcal/mol|
|  sn= 2 | S(rot)=       0.01304893 Eh      8.19 kcal/mol|
|  sn= 3 | S(rot)=       0.01266610 Eh      7.95 kcal/mol|
|  sn= 4 | S(rot)=       0.01239448 Eh      7.78 kcal/mol|
|  sn= 5 | S(rot)=       0.01218379 Eh      7.65 kcal/mol|
|  sn= 6 | S(rot)=       0.01201164 Eh      7.54 kcal/mol|
|  sn= 7 | S(rot)=       0.01186610 Eh      7.45 kcal/mol|
|  sn= 8 | S(rot)=       0.01174002 Eh      7.37 kcal/mol|
|  sn= 9 | S(rot)=       0.01162881 Eh      7.30 kcal/mol|
|  sn=10 | S(rot)=       0.01152933 Eh      7.23 kcal/mol|
|  sn=11 | S(rot)=       0.01143934 Eh      7.18 kcal/mol|

                             ****ORCA TERMINATED NORMALLY****
TOTAL RUN TIME: 0 days 0 hours 27 minutes 46 seconds 389 msec
