                         Program Version 5.0.4 -  RELEASE  -
|  1> # ORCA 5.0.4 - /users/bwb16179/postgrad/2024_06/pKa_Reviewer_Comments/Aq_Z=0/3_deprot.inp # write input file
|  2> # Basic Mode
|  3> #
|  4> ! Opt Freq wB97X Def2-TZVP D4 SlowConv TightSCF Defgrid2 Def2/J RIJCOSX CPCM(Water)
|  5>
|  6> %PAL NPROCS 4 END
|  7>
|  8> %maxcore 4500
|  9>
| 10> %geom
| 11> Maxiter 150
| 12> END
| 13>
| 14> * xyzfile 0 1 3_deprot.xyz
| 15>
| 16>                          ****END OF INPUT****
 Total Charge           Charge          ....    0
 Multiplicity           Mult            ....    1
 Number of Electrons    NEL             ....   84
Dispersion correction           -0.002555326
FINAL SINGLE POINT ENERGY     -1224.057233544177
Dispersion correction            ... Starting D4
Dispersion correction           -0.002559729
FINAL SINGLE POINT ENERGY     -1224.057799055960
Dispersion correction            ... Starting D4
Dispersion correction           -0.002560157
FINAL SINGLE POINT ENERGY     -1224.057810250851
Dispersion correction            ... Starting D4
                    ***********************HURRAY********************

CARTESIAN COORDINATES (ANGSTROEM)
---------------------------------
  N     -0.000002    1.065308    1.110465
  N     -0.000002   -1.065309    1.110464
  C     -0.000002    0.673817   -0.210465
  C     -0.000001   -0.673817   -0.210465
  C     -0.000002   -0.000001    1.949456
  Cl     0.000002    1.748603   -1.521796
  Cl     0.000005   -1.748598   -1.521799
  C      0.000000    2.448174    1.550650
  C     -0.000000   -2.448175    1.550651
  H      0.000002    2.444902    2.637251
  H      0.000003   -2.444901    2.637252
  H     -0.888967    2.962900    1.186220
  H     -0.888968   -2.962901    1.186222
  H      0.888966   -2.962900    1.186217
  H      0.888966    2.962899    1.186216

 Multiplicity           Mult            ....    1
 Number of Electrons    NEL             ....   84
 Basis Dimension        Dim             ....  327

ORBITAL ENERGIES
----------------

  NO   OCC          E(Eh)            E(eV)
   0   2.0000    -101.525041     -2762.6368
   1   2.0000    -101.525034     -2762.6366
   2   2.0000     -14.460982      -393.5033
   3   2.0000     -14.460953      -393.5025
   4   2.0000     -10.351705      -281.6842
   5   2.0000     -10.350941      -281.6634
   6   2.0000     -10.289054      -279.9794
   7   2.0000     -10.289048      -279.9792
   8   2.0000     -10.284615      -279.8586
   9   2.0000      -9.574330      -260.5308
  10   2.0000      -9.574319      -260.5305
  11   2.0000      -7.335783      -199.6168
  12   2.0000      -7.335779      -199.6167
  13   2.0000      -7.325805      -199.3453
  14   2.0000      -7.325804      -199.3453
  15   2.0000      -7.325733      -199.3433
  16   2.0000      -7.325731      -199.3433
  17   2.0000      -1.188085       -32.3294
  18   2.0000      -1.076725       -29.2992
  19   2.0000      -1.031159       -28.0593
  20   2.0000      -0.995877       -27.0992
  21   2.0000      -0.910834       -24.7850
  22   2.0000      -0.843856       -22.9625
  23   2.0000      -0.817684       -22.2503
  24   2.0000      -0.719128       -19.5685
  25   2.0000      -0.714951       -19.4548
  26   2.0000      -0.641617       -17.4593
  27   2.0000      -0.619116       -16.8470
  28   2.0000      -0.584026       -15.8922
  29   2.0000      -0.568897       -15.4805
  30   2.0000      -0.564528       -15.3616
  31   2.0000      -0.555144       -15.1062
  32   2.0000      -0.519529       -14.1371
  33   2.0000      -0.514402       -13.9976
  34   2.0000      -0.498508       -13.5651
  35   2.0000      -0.473091       -12.8734
  36   2.0000      -0.464562       -12.6414
  37   2.0000      -0.452888       -12.3237
  38   2.0000      -0.446894       -12.1606
  39   2.0000      -0.382723       -10.4144
  40   2.0000      -0.344436        -9.3726
  41   2.0000      -0.323413        -8.8005
  42   0.0000       0.096363         2.6222
  43   0.0000       0.103831         2.8254
  44   0.0000       0.108431         2.9506
  45   0.0000       0.135215         3.6794
  46   0.0000       0.138378         3.7655

MULLIKEN ATOMIC CHARGES
-----------------------
   0 N :   -0.040469
   1 N :   -0.040443
   2 C :    0.029160
   3 C :    0.029148
   4 C :   -0.288962
   5 Cl:   -0.016923
   6 Cl:   -0.016927
   7 C :   -0.314900
   8 C :   -0.314897
   9 H :    0.160542
  10 H :    0.160537
  11 H :    0.163533
  12 H :    0.163534
  13 H :    0.163535
  14 H :    0.163532
Sum of atomic charges:   -0.0000000

LOEWDIN ATOMIC CHARGES
----------------------
   0 N :    0.187463
   1 N :    0.187463
   2 C :   -0.562263
   3 C :   -0.562264
   4 C :   -0.388311
   5 Cl:    0.456386
   6 Cl:    0.456386
   7 C :   -0.268899
   8 C :   -0.268899
   9 H :    0.130540
  10 H :    0.130539
  11 H :    0.125465
  12 H :    0.125465
  13 H :    0.125465
  14 H :    0.125465

  Mayer bond orders larger than 0.100000
B(  0-N ,  2-C ) :   1.1208 B(  0-N ,  4-C ) :   1.2023 B(  0-N ,  7-C ) :   0.8723
B(  1-N ,  3-C ) :   1.1208 B(  1-N ,  4-C ) :   1.2023 B(  1-N ,  8-C ) :   0.8723
B(  2-C ,  3-C ) :   1.6216 B(  2-C ,  5-Cl) :   1.2190 B(  3-C ,  6-Cl) :   1.2190
B(  7-C ,  9-H ) :   0.9649 B(  7-C , 11-H ) :   0.9638 B(  7-C , 14-H ) :   0.9638
B(  8-C , 10-H ) :   0.9649 B(  8-C , 12-H ) :   0.9638 B(  8-C , 13-H ) :   0.9638

Dispersion correction           -0.002560179
FINAL SINGLE POINT ENERGY     -1224.057810525951

DIPOLE MOMENT
-------------
                                X             Y             Z
Electronic contribution:      0.00001       0.00001     -14.17329
Nuclear contribution   :     -0.00001      -0.00001      13.69590
                        -----------------------------------------
Total Dipole Moment    :      0.00000      -0.00000      -0.47740
                        -----------------------------------------
Magnitude (a.u.)       :      0.47740
Magnitude (Debye)      :      1.21344

Dispersion correction in the Hessian             ... Starting D4

VIBRATIONAL FREQUENCIES
-----------------------

Scaling factor for frequencies =  1.000000000  (already applied!)

   0:         0.00 cm**-1
   1:         0.00 cm**-1
   2:         0.00 cm**-1
   3:         0.00 cm**-1
   4:         0.00 cm**-1
   5:         0.00 cm**-1
   6:       101.35 cm**-1
   7:       114.57 cm**-1
   8:       127.85 cm**-1
   9:       169.15 cm**-1
  10:       172.80 cm**-1
  11:       236.47 cm**-1
  12:       272.63 cm**-1
  13:       283.45 cm**-1
  14:       319.11 cm**-1
  15:       440.00 cm**-1
  16:       539.26 cm**-1
  17:       578.48 cm**-1
  18:       634.06 cm**-1
  19:       645.05 cm**-1
  20:       690.89 cm**-1
  21:       879.66 cm**-1
  22:      1087.88 cm**-1
  23:      1091.39 cm**-1
  24:      1106.84 cm**-1
  25:      1155.44 cm**-1
  26:      1155.84 cm**-1
  27:      1172.49 cm**-1
  28:      1369.24 cm**-1
  29:      1386.52 cm**-1
  30:      1428.63 cm**-1
  31:      1438.76 cm**-1
  32:      1458.85 cm**-1
  33:      1473.51 cm**-1
  34:      1474.05 cm**-1
  35:      1474.54 cm**-1
  36:      1498.36 cm**-1
  37:      1498.81 cm**-1
  38:      1679.87 cm**-1
  39:      3087.36 cm**-1
  40:      3087.91 cm**-1
  41:      3165.25 cm**-1
  42:      3165.26 cm**-1
  43:      3202.07 cm**-1
  44:      3202.29 cm**-1

IR SPECTRUM
-----------

 Mode   freq       eps      Int      T**2         TX        TY        TZ
       cm**-1   L/(mol*cm) km/mol    a.u.
----------------------------------------------------------------------------
  6:    101.35   0.000000    0.00  0.000000  (-0.000001  0.000000 -0.000000)
  7:    114.57   0.000513    2.59  0.001397  (-0.037378 -0.000000 -0.000000)
  8:    127.85   0.000000    0.00  0.000000  (-0.000001  0.000000  0.000000)
  9:    169.15   0.002109   10.66  0.003890  (-0.062373 -0.000000 -0.000000)
 10:    172.80   0.000115    0.58  0.000208  (-0.000002  0.000000  0.014420)
 11:    236.47   0.000078    0.39  0.000103  ( 0.000000 -0.010144 -0.000000)
 12:    272.63   0.001915    9.68  0.002192  (-0.046824 -0.000001 -0.000001)
 13:    283.45   0.001897    9.58  0.002088  ( 0.000001  0.000000 -0.045694)
 14:    319.11   0.000000    0.00  0.000000  ( 0.000001 -0.000000 -0.000000)
 15:    440.00   0.001607    8.12  0.001140  ( 0.000000 -0.033757 -0.000000)
 16:    539.26   0.001421    7.18  0.000822  ( 0.000000 -0.000000 -0.028676)
 17:    578.48   0.002725   13.77  0.001470  (-0.000000 -0.038342 -0.000000)
 18:    634.06   0.000780    3.94  0.000384  (-0.019599 -0.000001 -0.000000)
 19:    645.05   0.000775    3.92  0.000375  ( 0.000000 -0.000000 -0.019368)
 20:    690.89   0.000000    0.00  0.000000  ( 0.000001 -0.000000  0.000000)
 21:    879.66   0.000224    1.13  0.000080  ( 0.000000  0.008923 -0.000000)
 22:   1087.88   0.000345    1.74  0.000099  ( 0.000000 -0.000000  0.009941)
 23:   1091.39   0.000107    0.54  0.000031  ( 0.000000 -0.005528 -0.000001)
 24:   1106.84   0.011936   60.32  0.003365  (-0.000000 -0.000000  0.058011)
 25:   1155.44   0.000005    0.02  0.000001  (-0.001135 -0.000000  0.000000)
 26:   1155.84   0.000000    0.00  0.000000  (-0.000000  0.000000 -0.000000)
 27:   1172.49   0.019998  101.06  0.005322  (-0.000000  0.072955 -0.000000)
 28:   1369.24   0.004326   21.86  0.000986  (-0.000000 -0.031401  0.000000)
 29:   1386.52   0.003241   16.38  0.000730  ( 0.000000 -0.000000 -0.027009)
 30:   1428.63   0.019432   98.20  0.004245  (-0.000000 -0.065150  0.000001)
 31:   1438.76   0.003119   15.76  0.000676  (-0.000000  0.000000  0.026008)
 32:   1458.85   0.006810   34.41  0.001457  (-0.000000 -0.000000 -0.038166)
 33:   1473.51   0.008605   43.49  0.001822  (-0.000001  0.042689 -0.000000)
 34:   1474.05   0.000000    0.00  0.000000  (-0.000012 -0.000010 -0.000000)
 35:   1474.54   0.007632   38.57  0.001615  ( 0.040190  0.000001  0.000000)
 36:   1498.36   0.010308   52.09  0.002147  ( 0.000000  0.000001 -0.046335)
 37:   1498.81   0.000786    3.97  0.000164  (-0.000000  0.012791  0.000005)
 38:   1679.87   0.008545   43.18  0.001587  ( 0.000000  0.000000 -0.039841)
 39:   3087.36   0.014216   71.84  0.001437  (-0.000000 -0.037906  0.000001)
 40:   3087.91   0.000169    0.86  0.000017  (-0.000000  0.000012  0.004138)
 41:   3165.25   0.005306   26.82  0.000523  (-0.022872  0.000000 -0.000000)
 42:   3165.26   0.000075    0.38  0.000007  ( 0.002717  0.000000 -0.000000)
 43:   3202.07   0.001432    7.24  0.000140  (-0.000000  0.000004  0.011814)
 44:   3202.29   0.000166    0.84  0.000016  (-0.000000  0.004022 -0.000012)

--------------------------
THERMOCHEMISTRY AT 298.15K
--------------------------

Temperature         ... 298.15 K
Pressure            ... 1.00 atm
Total Mass          ... 165.02 AMU

Throughout the following assumptions are being made:
  (1) The electronic state is orbitally nondegenerate
  (2) There are no thermally accessible electronically excited states
  (3) Hindered rotations indicated by low frequency modes are not
      treated as such but are treated as vibrations and this may
      cause some error
  (4) All equations used are the standard statistical mechanics
      equations for an ideal gas
  (5) All vibrations are strictly harmonic

freq.     101.35  E(vib)   ...       0.46
freq.     114.57  E(vib)   ...       0.44
freq.     127.85  E(vib)   ...       0.43
freq.     169.15  E(vib)   ...       0.38
freq.     172.80  E(vib)   ...       0.38
freq.     236.47  E(vib)   ...       0.32
freq.     272.63  E(vib)   ...       0.29
freq.     283.45  E(vib)   ...       0.28
freq.     319.11  E(vib)   ...       0.25
freq.     440.00  E(vib)   ...       0.17
freq.     539.26  E(vib)   ...       0.12
freq.     578.48  E(vib)   ...       0.11
freq.     634.06  E(vib)   ...       0.09
freq.     645.05  E(vib)   ...       0.09
freq.     690.89  E(vib)   ...       0.07
freq.     879.66  E(vib)   ...       0.04
freq.    1087.88  E(vib)   ...       0.02
freq.    1091.39  E(vib)   ...       0.02
freq.    1106.84  E(vib)   ...       0.02
freq.    1155.44  E(vib)   ...       0.01
freq.    1155.84  E(vib)   ...       0.01
freq.    1172.49  E(vib)   ...       0.01
freq.    1369.24  E(vib)   ...       0.01
freq.    1386.52  E(vib)   ...       0.00
freq.    1428.63  E(vib)   ...       0.00
freq.    1438.76  E(vib)   ...       0.00
freq.    1458.85  E(vib)   ...       0.00
freq.    1473.51  E(vib)   ...       0.00
freq.    1474.05  E(vib)   ...       0.00
freq.    1474.54  E(vib)   ...       0.00
freq.    1498.36  E(vib)   ...       0.00
freq.    1498.81  E(vib)   ...       0.00
freq.    1679.87  E(vib)   ...       0.00
freq.    3087.36  E(vib)   ...       0.00
freq.    3087.91  E(vib)   ...       0.00
freq.    3165.25  E(vib)   ...       0.00
freq.    3165.26  E(vib)   ...       0.00
freq.    3202.07  E(vib)   ...       0.00
freq.    3202.29  E(vib)   ...       0.00

------------
INNER ENERGY
------------

The inner energy is: U= E(el) + E(ZPE) + E(vib) + E(rot) + E(trans)
    E(el)   - is the total energy from the electronic structure calculation
              = E(kin-el) + E(nuc-el) + E(el-el) + E(nuc-nuc)
    E(ZPE)  - the the zero temperature vibrational energy from the frequency calculation
    E(vib)  - the the finite temperature correction to E(ZPE) due to population
              of excited vibrational states
    E(rot)  - is the rotational thermal energy
    E(trans)- is the translational thermal energy

Summary of contributions to the inner energy U:
Electronic energy                ...  -1224.05781053 Eh
Zero point energy                ...      0.10950225 Eh      68.71 kcal/mol
Thermal vibrational correction   ...      0.00643033 Eh       4.04 kcal/mol
Thermal rotational correction    ...      0.00141627 Eh       0.89 kcal/mol
Thermal translational correction ...      0.00141627 Eh       0.89 kcal/mol
-----------------------------------------------------------------------
Total thermal energy                  -1223.93904541 Eh

Summary of corrections to the electronic energy:
(perhaps to be used in another calculation)
Total thermal correction                  0.00926287 Eh       5.81 kcal/mol
Non-thermal (ZPE) correction              0.10950225 Eh      68.71 kcal/mol
-----------------------------------------------------------------------
Total correction                          0.11876512 Eh      74.53 kcal/mol

--------
ENTHALPY
--------

The enthalpy is H = U + kB*T
                kB is Boltzmann's constant
Total free energy                 ...  -1223.93904541 Eh
Thermal Enthalpy correction       ...      0.00094421 Eh       0.59 kcal/mol
-----------------------------------------------------------------------
Total Enthalpy                    ...  -1223.93810120 Eh

Note: Rotational entropy computed according to Herzberg
Infrared and Raman Spectra, Chapter V,1, Van Nostrand Reinhold, 1945
Point Group:  C2v, Symmetry Number:   2
Rotational constants in cm-1:     0.051812     0.037122     0.021805

Vibrational entropy computed according to the QRRHO of S. Grimme
Chem.Eur.J. 2012 18 9955

-------
ENTROPY
-------

The entropy contributions are T*S = T*(S(el)+S(vib)+S(rot)+S(trans))
     S(el)   - electronic entropy
     S(vib)  - vibrational entropy
     S(rot)  - rotational entropy
     S(trans)- translational entropy
The entropies will be listed as multiplied by the temperature to get
units of energy

Electronic entropy                ...      0.00000000 Eh      0.00 kcal/mol
Vibrational entropy               ...      0.01127905 Eh      7.08 kcal/mol
Rotational entropy                ...      0.01361469 Eh      8.54 kcal/mol
Translational entropy             ...      0.01958067 Eh     12.29 kcal/mol
-----------------------------------------------------------------------
Final entropy term                ...      0.04447441 Eh     27.91 kcal/mol

In case the symmetry of your molecule has not been determined correctly
or in case you have a reason to use a different symmetry number we print
out the resulting rotational entropy values for sn=1,12 :
 --------------------------------------------------------
|  sn= 1 | S(rot)=       0.01426914 Eh      8.95 kcal/mol|
|  sn= 2 | S(rot)=       0.01361469 Eh      8.54 kcal/mol|
|  sn= 3 | S(rot)=       0.01323185 Eh      8.30 kcal/mol|
|  sn= 4 | S(rot)=       0.01296023 Eh      8.13 kcal/mol|
|  sn= 5 | S(rot)=       0.01274954 Eh      8.00 kcal/mol|
|  sn= 6 | S(rot)=       0.01257740 Eh      7.89 kcal/mol|
|  sn= 7 | S(rot)=       0.01243185 Eh      7.80 kcal/mol|
|  sn= 8 | S(rot)=       0.01230577 Eh      7.72 kcal/mol|
|  sn= 9 | S(rot)=       0.01219456 Eh      7.65 kcal/mol|
|  sn=10 | S(rot)=       0.01209509 Eh      7.59 kcal/mol|
|  sn=11 | S(rot)=       0.01200510 Eh      7.53 kcal/mol|
|  sn=12 | S(rot)=       0.01192294 Eh      7.48 kcal/mol|
 --------------------------------------------------------

-------------------
GIBBS FREE ENERGY
-------------------

The Gibbs free energy is G = H - T*S

Total enthalpy                    ...  -1223.93810120 Eh
Total entropy correction          ...     -0.04447441 Eh    -27.91 kcal/mol
-----------------------------------------------------------------------
Final Gibbs free energy         ...  -1223.98257561 Eh

For completeness - the Gibbs free energy minus the electronic energy
G-E(el)                           ...      0.07523492 Eh     47.21 kcal/mol

                             ****ORCA TERMINATED NORMALLY****
TOTAL RUN TIME: 0 days 0 hours 20 minutes 5 seconds 762 msec
