                         Program Version 5.0.4 -  RELEASE  -
|  1> # ORCA 5.0.4 - /users/bwb16179/postgrad/2024_06/pKa_Reviewer_Comments/Aq_Z=0/4_deprot.inp # write input file
|  2> # Basic Mode
|  3> #
|  4> ! Opt Freq wB97X Def2-TZVP D4 SlowConv TightSCF Defgrid2 Def2/J RIJCOSX CPCM(Water)
|  5>
|  6> %PAL NPROCS 4 END
|  7>
|  8> %maxcore 4500
|  9>
| 10> %geom
| 11> Maxiter 150
| 12> END
| 13>
| 14> * xyzfile 0 1 4_deprot.xyz
| 15>
| 16>                          ****END OF INPUT****
 Total Charge           Charge          ....    0
 Multiplicity           Mult            ....    1
 Number of Electrons    NEL             ....   84
Dispersion correction           -0.004100675
FINAL SINGLE POINT ENERGY      -462.126252441898
Dispersion correction            ... Starting D4
Dispersion correction           -0.004109256
FINAL SINGLE POINT ENERGY      -462.127374929329
Dispersion correction            ... Starting D4
Dispersion correction           -0.004109521
FINAL SINGLE POINT ENERGY      -462.127391543889
Dispersion correction            ... Starting D4
Dispersion correction           -0.004109486
FINAL SINGLE POINT ENERGY      -462.127395782300
Dispersion correction            ... Starting D4
                    ***********************HURRAY********************

CARTESIAN COORDINATES (ANGSTROEM)
---------------------------------
  C      0.000002    2.453032    0.557666
  C     -0.000004   -2.453032    0.557666
  N     -0.000000    1.060620    0.106996
  N     -0.000005   -1.060621    0.106997
  C     -0.000002    0.673757   -1.219385
  C      0.000000   -0.673758   -1.219385
  C     -0.000000   -0.000000    0.949324
  C      1.263144    3.170493    0.102933
  C     -1.263142    3.170495    0.102943
  C     -1.263143   -3.170498    0.102933
  C      1.263143   -3.170490    0.102944
  H     -0.000003    1.374546   -2.038577
  H      0.000002   -1.374547   -2.038576
  H      0.000007    2.386313    1.646524
  H     -0.000009   -2.386314    1.646524
  H      1.302767    3.242368   -0.986826
  H     -1.302774    3.242370   -0.986815
  H     -1.302768   -3.242371   -0.986826
  H      1.302779   -3.242359   -0.986815
  H      1.280134    4.183109    0.508777
  H     -1.280126    4.183112    0.508787
  H     -1.280127   -4.183116    0.508775
  H      1.280130   -4.183109    0.508782
  H      2.154227    2.643965    0.449036
  H     -2.154224    2.643970    0.449054
  H     -2.154228   -2.643975    0.449040
  H      2.154222   -2.643963    0.449059

 Multiplicity           Mult            ....    1
 Number of Electrons    NEL             ....   84
 Basis Dimension        Dim             ....  437

ORBITAL ENERGIES
----------------

  NO   OCC          E(Eh)            E(eV)
   0   2.0000     -14.436273      -392.8310
   1   2.0000     -14.436246      -392.8302
   2   2.0000     -10.295027      -280.1419
   3   2.0000     -10.295021      -280.1418
   4   2.0000     -10.278766      -279.6994
   5   2.0000     -10.278001      -279.6786
   6   2.0000     -10.266880      -279.3760
   7   2.0000     -10.242223      -278.7050
   8   2.0000     -10.242222      -278.7050
   9   2.0000     -10.242215      -278.7048
  10   2.0000     -10.242213      -278.7048
  11   2.0000      -1.158936       -31.5363
  12   2.0000      -1.051588       -28.6152
  13   2.0000      -0.943212       -25.6661
  14   2.0000      -0.892456       -24.2850
  15   2.0000      -0.875619       -23.8268
  16   2.0000      -0.817479       -22.2447
  17   2.0000      -0.817127       -22.2352
  18   2.0000      -0.765848       -20.8398
  19   2.0000      -0.752882       -20.4870
  20   2.0000      -0.680248       -18.5105
  21   2.0000      -0.669558       -18.2196
  22   2.0000      -0.627328       -17.0705
  23   2.0000      -0.588739       -16.0204
  24   2.0000      -0.579654       -15.7732
  25   2.0000      -0.560946       -15.2641
  26   2.0000      -0.559411       -15.2224
  27   2.0000      -0.536174       -14.5900
  28   2.0000      -0.536138       -14.5891
  29   2.0000      -0.528498       -14.3811
  30   2.0000      -0.502681       -13.6787
  31   2.0000      -0.494631       -13.4596
  32   2.0000      -0.486802       -13.2466
  33   2.0000      -0.484673       -13.1886
  34   2.0000      -0.466226       -12.6867
  35   2.0000      -0.457603       -12.4520
  36   2.0000      -0.446630       -12.1534
  37   2.0000      -0.443899       -12.0791
  38   2.0000      -0.435526       -11.8513
  39   2.0000      -0.370577       -10.0839
  40   2.0000      -0.333507        -9.0752
  41   2.0000      -0.327957        -8.9242
  42   0.0000       0.111336         3.0296
  43   0.0000       0.115220         3.1353
  44   0.0000       0.123115         3.3501
  45   0.0000       0.129199         3.5157
  46   0.0000       0.156882         4.2690

MULLIKEN ATOMIC CHARGES
-----------------------
   0 C :   -0.028576
   1 C :   -0.028531
   2 N :   -0.000327
   3 N :   -0.000334
   4 C :   -0.180186
   5 C :   -0.180193
   6 C :   -0.343671
   7 C :   -0.382763
   8 C :   -0.382777
   9 C :   -0.382800
  10 C :   -0.382769
  11 H :    0.218956
  12 H :    0.218973
  13 H :    0.119732
  14 H :    0.119728
  15 H :    0.130217
  16 H :    0.130217
  17 H :    0.130221
  18 H :    0.130217
  19 H :    0.139579
  20 H :    0.139579
  21 H :    0.139587
  22 H :    0.139582
  23 H :    0.134080
  24 H :    0.134086
  25 H :    0.134088
  26 H :    0.134085
Sum of atomic charges:   -0.0000000

LOEWDIN ATOMIC CHARGES
----------------------
   0 C :   -0.307407
   1 C :   -0.307406
   2 N :    0.224308
   3 N :    0.224308
   4 C :   -0.216059
   5 C :   -0.216060
   6 C :   -0.415463
   7 C :   -0.278022
   8 C :   -0.278022
   9 C :   -0.278023
  10 C :   -0.278022
  11 H :    0.150656
  12 H :    0.150656
  13 H :    0.153009
  14 H :    0.153009
  15 H :    0.124948
  16 H :    0.124948
  17 H :    0.124948
  18 H :    0.124948
  19 H :    0.129575
  20 H :    0.129575
  21 H :    0.129575
  22 H :    0.129574
  23 H :    0.125111
  24 H :    0.125111
  25 H :    0.125111
  26 H :    0.125111

  Mayer bond orders larger than 0.100000
B(  0-C ,  2-N ) :   0.8668 B(  0-C ,  7-C ) :   0.9670 B(  0-C ,  8-C ) :   0.9670
B(  0-C , 13-H ) :   0.9774 B(  1-C ,  3-N ) :   0.8669 B(  1-C ,  9-C ) :   0.9670
B(  1-C , 10-C ) :   0.9670 B(  1-C , 14-H ) :   0.9774 B(  2-N ,  4-C ) :   1.1057
B(  2-N ,  6-C ) :   1.1995 B(  3-N ,  5-C ) :   1.1057 B(  3-N ,  6-C ) :   1.1994
B(  4-C ,  5-C ) :   1.7600 B(  4-C , 11-H ) :   0.9325 B(  5-C , 12-H ) :   0.9325
B(  7-C , 15-H ) :   0.9650 B(  7-C , 19-H ) :   0.9779 B(  7-C , 23-H ) :   0.9783
B(  8-C , 16-H ) :   0.9649 B(  8-C , 20-H ) :   0.9779 B(  8-C , 24-H ) :   0.9783
B(  9-C , 17-H ) :   0.9649 B(  9-C , 21-H ) :   0.9779 B(  9-C , 25-H ) :   0.9783
B( 10-C , 18-H ) :   0.9649 B( 10-C , 22-H ) :   0.9779 B( 10-C , 26-H ) :   0.9783

Dispersion correction           -0.004109397
FINAL SINGLE POINT ENERGY      -462.127396212403

DIPOLE MOMENT
-------------
                                X             Y             Z
Electronic contribution:     -0.00002      -0.00000      -0.37981
Nuclear contribution   :      0.00002       0.00000      -1.09410
                        -----------------------------------------
Total Dipole Moment    :     -0.00000      -0.00000      -1.47390
                        -----------------------------------------
Magnitude (a.u.)       :      1.47390
Magnitude (Debye)      :      3.74637

Dispersion correction in the Hessian             ... Starting D4

VIBRATIONAL FREQUENCIES
-----------------------

Scaling factor for frequencies =  1.000000000  (already applied!)

   0:         0.00 cm**-1
   1:         0.00 cm**-1
   2:         0.00 cm**-1
   3:         0.00 cm**-1
   4:         0.00 cm**-1
   5:         0.00 cm**-1
   6:        25.26 cm**-1
   7:        29.13 cm**-1
   8:       115.80 cm**-1
   9:       145.17 cm**-1
  10:       161.70 cm**-1
  11:       225.48 cm**-1
  12:       225.53 cm**-1
  13:       246.50 cm**-1
  14:       255.44 cm**-1
  15:       269.66 cm**-1
  16:       300.30 cm**-1
  17:       355.94 cm**-1
  18:       404.50 cm**-1
  19:       445.25 cm**-1
  20:       458.12 cm**-1
  21:       572.67 cm**-1
  22:       634.32 cm**-1
  23:       671.54 cm**-1
  24:       682.02 cm**-1
  25:       687.26 cm**-1
  26:       759.33 cm**-1
  27:       887.38 cm**-1
  28:       905.11 cm**-1
  29:       908.55 cm**-1
  30:       941.75 cm**-1
  31:       941.85 cm**-1
  32:       962.08 cm**-1
  33:       962.12 cm**-1
  34:      1021.39 cm**-1
  35:      1027.52 cm**-1
  36:      1077.63 cm**-1
  37:      1100.40 cm**-1
  38:      1114.71 cm**-1
  39:      1166.77 cm**-1
  40:      1167.40 cm**-1
  41:      1196.61 cm**-1
  42:      1202.75 cm**-1
  43:      1251.98 cm**-1
  44:      1312.28 cm**-1
  45:      1326.11 cm**-1
  46:      1364.62 cm**-1
  47:      1365.13 cm**-1
  48:      1395.02 cm**-1
  49:      1407.16 cm**-1
  50:      1407.32 cm**-1
  51:      1408.69 cm**-1
  52:      1416.04 cm**-1
  53:      1423.20 cm**-1
  54:      1441.22 cm**-1
  55:      1471.45 cm**-1
  56:      1471.46 cm**-1
  57:      1471.66 cm**-1
  58:      1480.63 cm**-1
  59:      1480.66 cm**-1
  60:      1485.65 cm**-1
  61:      1486.02 cm**-1
  62:      1493.43 cm**-1
  63:      1495.61 cm**-1
  64:      1637.69 cm**-1
  65:      3062.70 cm**-1
  66:      3062.71 cm**-1
  67:      3065.52 cm**-1
  68:      3065.66 cm**-1
  69:      3114.20 cm**-1
  70:      3114.44 cm**-1
  71:      3139.96 cm**-1
  72:      3139.98 cm**-1
  73:      3147.16 cm**-1
  74:      3147.27 cm**-1
  75:      3152.42 cm**-1
  76:      3152.43 cm**-1
  77:      3155.06 cm**-1
  78:      3155.14 cm**-1
  79:      3284.22 cm**-1
  80:      3304.20 cm**-1

IR SPECTRUM
-----------

 Mode   freq       eps      Int      T**2         TX        TY        TZ
       cm**-1   L/(mol*cm) km/mol    a.u.
----------------------------------------------------------------------------
  6:     25.26   0.000003    0.02  0.000042  (-0.006467  0.000000 -0.000000)
  7:     29.13   0.000000    0.00  0.000000  ( 0.000001  0.000000  0.000000)
  8:    115.80   0.004277   21.61  0.011526  ( 0.107357  0.000001  0.000001)
  9:    145.17   0.000000    0.00  0.000000  (-0.000000  0.000000  0.000000)
 10:    161.70   0.000575    2.91  0.001110  (-0.000001  0.000000  0.033324)
 11:    225.48   0.000177    0.90  0.000245  ( 0.015667 -0.000000 -0.000001)
 12:    225.53   0.000000    0.00  0.000000  ( 0.000133  0.000001  0.000000)
 13:    246.50   0.000059    0.30  0.000075  ( 0.000000  0.008669 -0.000001)
 14:    255.44   0.000015    0.08  0.000019  (-0.000000 -0.000001 -0.004343)
 15:    269.66   0.000004    0.02  0.000004  ( 0.000000  0.000000  0.002046)
 16:    300.30   0.001144    5.78  0.001188  (-0.000000  0.034474  0.000000)
 17:    355.94   0.000744    3.76  0.000653  (-0.000000  0.025548 -0.000000)
 18:    404.50   0.004681   23.65  0.003611  (-0.060092 -0.000000 -0.000000)
 19:    445.25   0.000000    0.00  0.000000  (-0.000000 -0.000000 -0.000000)
 20:    458.12   0.000005    0.02  0.000003  ( 0.000000 -0.000000  0.001831)
 21:    572.67   0.003353   16.95  0.001827  ( 0.000000 -0.042747 -0.000000)
 22:    634.32   0.000073    0.37  0.000036  (-0.000000  0.000000  0.005981)
 23:    671.54   0.001593    8.05  0.000740  ( 0.027210 -0.000000  0.000000)
 24:    682.02   0.000000    0.00  0.000000  ( 0.000000  0.000006 -0.000000)
 25:    687.26   0.002703   13.66  0.001227  (-0.000001 -0.035031 -0.000000)
 26:    759.33   0.019640   99.25  0.008071  ( 0.089841 -0.000000 -0.000000)
 27:    887.38   0.000000    0.00  0.000000  ( 0.000000  0.000000  0.000000)
 28:    905.11   0.002701   13.65  0.000931  ( 0.000000  0.030519 -0.000000)
 29:    908.55   0.000439    2.22  0.000151  ( 0.000000 -0.000001 -0.012281)
 30:    941.75   0.000000    0.00  0.000000  (-0.000067 -0.000000 -0.000000)
 31:    941.85   0.000503    2.54  0.000167  ( 0.012913  0.000000 -0.000000)
 32:    962.08   0.000041    0.21  0.000013  ( 0.003629  0.000000  0.000000)
 33:    962.12   0.000000    0.00  0.000000  ( 0.000028 -0.000000 -0.000000)
 34:   1021.39   0.002126   10.74  0.000650  (-0.000000 -0.025486 -0.000000)
 35:   1027.52   0.000030    0.15  0.000009  (-0.000000 -0.000001  0.003017)
 36:   1077.63   0.000298    1.50  0.000086  (-0.000000 -0.009286 -0.000000)
 37:   1100.40   0.000004    0.02  0.000001  ( 0.000000  0.000000  0.000998)
 38:   1114.71   0.003767   19.03  0.001054  (-0.000000  0.000000 -0.032472)
 39:   1166.77   0.000000    0.00  0.000000  ( 0.000004 -0.000000  0.000000)
 40:   1167.40   0.005019   25.36  0.001342  (-0.036628 -0.000000 -0.000000)
 41:   1196.61   0.000065    0.33  0.000017  ( 0.000000  0.000000  0.004122)
 42:   1202.75   0.000079    0.40  0.000021  (-0.000000  0.004537 -0.000000)
 43:   1251.98   0.040556  204.95  0.010109  ( 0.000000  0.100542 -0.000000)
 44:   1312.28   0.001635    8.26  0.000389  (-0.000000  0.019715  0.000000)
 45:   1326.11   0.000974    4.92  0.000229  ( 0.000000 -0.000000  0.015139)
 46:   1364.62   0.000000    0.00  0.000000  ( 0.000006 -0.000000  0.000000)
 47:   1365.13   0.000441    2.23  0.000101  (-0.010045 -0.000000  0.000000)
 48:   1395.02   0.001621    8.19  0.000363  ( 0.000000 -0.000000 -0.019043)
 49:   1407.16   0.000000    0.00  0.000000  ( 0.000081  0.000001 -0.000000)
 50:   1407.32   0.008990   45.43  0.001993  (-0.044648  0.000001 -0.000000)
 51:   1408.69   0.003501   17.69  0.000776  (-0.000001 -0.027848  0.000000)
 52:   1416.04   0.000437    2.21  0.000096  (-0.000001 -0.000001  0.009818)
 53:   1423.20   0.015416   77.90  0.003380  (-0.000000  0.058139 -0.000000)
 54:   1441.22   0.004218   21.31  0.000913  (-0.000000  0.000000  0.030220)
 55:   1471.45   0.000000    0.00  0.000000  ( 0.000065 -0.000002  0.000000)
 56:   1471.46   0.000008    0.04  0.000002  (-0.001268 -0.000020  0.000000)
 57:   1471.66   0.017216   87.01  0.003651  (-0.000000 -0.060421 -0.000001)
 58:   1480.63   0.000953    4.82  0.000201  (-0.014173  0.000001  0.000000)
 59:   1480.66   0.000000    0.00  0.000000  (-0.000022  0.000000  0.000001)
 60:   1485.65   0.007948   40.17  0.001670  (-0.000000 -0.000012  0.040860)
 61:   1486.02   0.002196   11.10  0.000461  ( 0.000000 -0.021476 -0.000022)
 62:   1493.43   0.000005    0.03  0.000001  (-0.000000  0.001037  0.000000)
 63:   1495.61   0.001162    5.87  0.000242  ( 0.000000 -0.000000  0.015568)
 64:   1637.69   0.000101    0.51  0.000019  ( 0.000000  0.000000 -0.004384)
 65:   3062.70   0.000000    0.00  0.000000  ( 0.000070  0.000000  0.000000)
 66:   3062.71   0.012157   61.44  0.001239  ( 0.035195 -0.000001 -0.000000)
 67:   3065.52   0.003836   19.38  0.000390  ( 0.000001  0.019760 -0.000002)
 68:   3065.66   0.002753   13.91  0.000280  (-0.000000 -0.000002 -0.016741)
 69:   3114.20   0.000423    2.14  0.000042  (-0.000000 -0.000001  0.006510)
 70:   3114.44   0.000133    0.67  0.000013  ( 0.000000  0.003645  0.000001)
 71:   3139.96   0.005128   25.92  0.000510  (-0.022576  0.000001 -0.000001)
 72:   3139.98   0.000000    0.00  0.000000  (-0.000061  0.000000  0.000000)
 73:   3147.16   0.000010    0.05  0.000001  ( 0.000001 -0.001010 -0.000005)
 74:   3147.27   0.025938  131.08  0.002572  (-0.000000 -0.000001  0.050714)
 75:   3152.42   0.006437   32.53  0.000637  ( 0.025243  0.000001 -0.000001)
 76:   3152.43   0.000000    0.00  0.000000  (-0.000137 -0.000001 -0.000001)
 77:   3155.06   0.021843  110.38  0.002160  ( 0.000000  0.046480  0.000024)
 78:   3155.14   0.002390   12.08  0.000236  ( 0.000001 -0.000070  0.015376)
 79:   3284.22   0.001090    5.51  0.000104  (-0.000000 -0.010175 -0.000000)
 80:   3304.20   0.000075    0.38  0.000007  ( 0.000000  0.000000  0.002653)

--------------------------
THERMOCHEMISTRY AT 298.15K
--------------------------

Temperature         ... 298.15 K
Pressure            ... 1.00 atm
Total Mass          ... 152.24 AMU

Throughout the following assumptions are being made:
  (1) The electronic state is orbitally nondegenerate
  (2) There are no thermally accessible electronically excited states
  (3) Hindered rotations indicated by low frequency modes are not
      treated as such but are treated as vibrations and this may
      cause some error
  (4) All equations used are the standard statistical mechanics
      equations for an ideal gas
  (5) All vibrations are strictly harmonic

freq.      25.26  E(vib)   ...       0.56
freq.      29.13  E(vib)   ...       0.55
freq.     115.80  E(vib)   ...       0.44
freq.     145.17  E(vib)   ...       0.41
freq.     161.70  E(vib)   ...       0.39
freq.     225.48  E(vib)   ...       0.33
freq.     225.53  E(vib)   ...       0.33
freq.     246.50  E(vib)   ...       0.31
freq.     255.44  E(vib)   ...       0.30
freq.     269.66  E(vib)   ...       0.29
freq.     300.30  E(vib)   ...       0.26
freq.     355.94  E(vib)   ...       0.22
freq.     404.50  E(vib)   ...       0.19
freq.     445.25  E(vib)   ...       0.17
freq.     458.12  E(vib)   ...       0.16
freq.     572.67  E(vib)   ...       0.11
freq.     634.32  E(vib)   ...       0.09
freq.     671.54  E(vib)   ...       0.08
freq.     682.02  E(vib)   ...       0.08
freq.     687.26  E(vib)   ...       0.07
freq.     759.33  E(vib)   ...       0.06
freq.     887.38  E(vib)   ...       0.04
freq.     905.11  E(vib)   ...       0.03
freq.     908.55  E(vib)   ...       0.03
freq.     941.75  E(vib)   ...       0.03
freq.     941.85  E(vib)   ...       0.03
freq.     962.08  E(vib)   ...       0.03
freq.     962.12  E(vib)   ...       0.03
freq.    1021.39  E(vib)   ...       0.02
freq.    1027.52  E(vib)   ...       0.02
freq.    1077.63  E(vib)   ...       0.02
freq.    1100.40  E(vib)   ...       0.02
freq.    1114.71  E(vib)   ...       0.01
freq.    1166.77  E(vib)   ...       0.01
freq.    1167.40  E(vib)   ...       0.01
freq.    1196.61  E(vib)   ...       0.01
freq.    1202.75  E(vib)   ...       0.01
freq.    1251.98  E(vib)   ...       0.01
freq.    1312.28  E(vib)   ...       0.01
freq.    1326.11  E(vib)   ...       0.01
freq.    1364.62  E(vib)   ...       0.01
freq.    1365.13  E(vib)   ...       0.01
freq.    1395.02  E(vib)   ...       0.00
freq.    1407.16  E(vib)   ...       0.00
freq.    1407.32  E(vib)   ...       0.00
freq.    1408.69  E(vib)   ...       0.00
freq.    1416.04  E(vib)   ...       0.00
freq.    1423.20  E(vib)   ...       0.00
freq.    1441.22  E(vib)   ...       0.00
freq.    1471.45  E(vib)   ...       0.00
freq.    1471.46  E(vib)   ...       0.00
freq.    1471.66  E(vib)   ...       0.00
freq.    1480.63  E(vib)   ...       0.00
freq.    1480.66  E(vib)   ...       0.00
freq.    1485.65  E(vib)   ...       0.00
freq.    1486.02  E(vib)   ...       0.00
freq.    1493.43  E(vib)   ...       0.00
freq.    1495.61  E(vib)   ...       0.00
freq.    1637.69  E(vib)   ...       0.00
freq.    3062.70  E(vib)   ...       0.00
freq.    3062.71  E(vib)   ...       0.00
freq.    3065.52  E(vib)   ...       0.00
freq.    3065.66  E(vib)   ...       0.00
freq.    3114.20  E(vib)   ...       0.00
freq.    3114.44  E(vib)   ...       0.00
freq.    3139.96  E(vib)   ...       0.00
freq.    3139.98  E(vib)   ...       0.00
freq.    3147.16  E(vib)   ...       0.00
freq.    3147.27  E(vib)   ...       0.00
freq.    3152.42  E(vib)   ...       0.00
freq.    3152.43  E(vib)   ...       0.00
freq.    3155.06  E(vib)   ...       0.00
freq.    3155.14  E(vib)   ...       0.00
freq.    3284.22  E(vib)   ...       0.00
freq.    3304.20  E(vib)   ...       0.00

------------
INNER ENERGY
------------

The inner energy is: U= E(el) + E(ZPE) + E(vib) + E(rot) + E(trans)
    E(el)   - is the total energy from the electronic structure calculation
              = E(kin-el) + E(nuc-el) + E(el-el) + E(nuc-nuc)
    E(ZPE)  - the the zero temperature vibrational energy from the frequency calculation
    E(vib)  - the the finite temperature correction to E(ZPE) due to population
              of excited vibrational states
    E(rot)  - is the rotational thermal energy
    E(trans)- is the translational thermal energy

Summary of contributions to the inner energy U:
Electronic energy                ...   -462.12739621 Eh
Zero point energy                ...      0.24151098 Eh     151.55 kcal/mol
Thermal vibrational correction   ...      0.00930150 Eh       5.84 kcal/mol
Thermal rotational correction    ...      0.00141627 Eh       0.89 kcal/mol
Thermal translational correction ...      0.00141627 Eh       0.89 kcal/mol
-----------------------------------------------------------------------
Total thermal energy                   -461.87375119 Eh

Summary of corrections to the electronic energy:
(perhaps to be used in another calculation)
Total thermal correction                  0.01213405 Eh       7.61 kcal/mol
Non-thermal (ZPE) correction              0.24151098 Eh     151.55 kcal/mol
-----------------------------------------------------------------------
Total correction                          0.25364502 Eh     159.16 kcal/mol

--------
ENTHALPY
--------

The enthalpy is H = U + kB*T
                kB is Boltzmann's constant
Total free energy                 ...   -461.87375119 Eh
Thermal Enthalpy correction       ...      0.00094421 Eh       0.59 kcal/mol
-----------------------------------------------------------------------
Total Enthalpy                    ...   -461.87280698 Eh

Note: Rotational entropy computed according to Herzberg
Infrared and Raman Spectra, Chapter V,1, Van Nostrand Reinhold, 1945
Point Group:  C2v, Symmetry Number:   2
Rotational constants in cm-1:     0.091995     0.018715     0.018027

Vibrational entropy computed according to the QRRHO of S. Grimme
Chem.Eur.J. 2012 18 9955

-------
ENTROPY
-------

The entropy contributions are T*S = T*(S(el)+S(vib)+S(rot)+S(trans))
     S(el)   - electronic entropy
     S(vib)  - vibrational entropy
     S(rot)  - rotational entropy
     S(trans)- translational entropy
The entropies will be listed as multiplied by the temperature to get
units of energy

Electronic entropy                ...      0.00000000 Eh      0.00 kcal/mol
Vibrational entropy               ...      0.01635860 Eh     10.27 kcal/mol
Rotational entropy                ...      0.01375681 Eh      8.63 kcal/mol
Translational entropy             ...      0.01946649 Eh     12.22 kcal/mol

                             ****ORCA TERMINATED NORMALLY****
TOTAL RUN TIME: 0 days 0 hours 50 minutes 13 seconds 348 msec
