                         Program Version 5.0.4 -  RELEASE  -
|  1> # ORCA 5.0.4 - /users/bwb16179/postgrad/2024_06/pKa_Reviewer_Comments/Aq_Z=0/5_deprot.inp # write input file
|  2> # Basic Mode
|  3> #
|  4> ! Opt Freq wB97X Def2-TZVP D4 SlowConv TightSCF Defgrid2 Def2/J RIJCOSX CPCM(Water)
|  5>
|  6> %PAL NPROCS 4 END
|  7>
|  8> %maxcore 4500
|  9>
| 10> %geom
| 11> Maxiter 150
| 12> END
| 13>
| 14> * xyzfile 0 1 5_deprot.xyz
| 15>
| 16>                          ****END OF INPUT****
 Total Charge           Charge          ....    0
 Multiplicity           Mult            ....    1
 Number of Electrons    NEL             ....  100
Dispersion correction           -0.005719391
FINAL SINGLE POINT ENERGY      -540.762246260692
Dispersion correction            ... Starting D4
Dispersion correction           -0.005727261
FINAL SINGLE POINT ENERGY      -540.763583127412
Dispersion correction            ... Starting D4
Dispersion correction           -0.005727851
FINAL SINGLE POINT ENERGY      -540.763591854889
Dispersion correction            ... Starting D4
FINAL SINGLE POINT ENERGY      -540.763586680242
Dispersion correction           -0.005727323
FINAL SINGLE POINT ENERGY      -540.763583423719
Dispersion correction            ... Starting D4
Dispersion correction           -0.005727254
FINAL SINGLE POINT ENERGY      -540.763579714952
Dispersion correction            ... Starting D4
                    ***********************HURRAY********************

CARTESIAN COORDINATES (ANGSTROEM)
---------------------------------
  C      1.566542   -0.067316    0.403780
  C      0.807836   -1.073238    0.872511
  N      0.723416    0.750439   -0.329388
  N     -0.478883   -0.837653    0.419034
  C     -0.552355    0.290190   -0.330221
  H      2.617986    0.126378    0.536652
  H      1.079457   -1.919385    1.481537
  C      1.202928    1.988577   -0.985437
  C     -1.602283   -1.752116    0.725431
  C      0.081188    2.639165   -1.782807
  C     -1.309573   -3.110617    0.087817
  C     -1.722740   -1.889175    2.243632
  C      2.348088    1.629361   -1.932540
  H     -0.288879    1.971692   -2.561723
  H     -0.385035   -3.540800    0.477962
  H     -0.820145   -2.316974    2.683210
  H      2.007299    0.919605   -2.689373
  H     -0.756489    2.917159   -1.143900
  H     -1.216258   -3.009680   -0.995533
  H     -1.903940   -0.914109    2.701029
  H      3.192089    1.189544   -1.398820
  H      0.476909    3.540774   -2.253786
  H     -2.123734   -3.804807    0.303005
  H     -2.558980   -2.546724    2.486454
  H      2.702504    2.530235   -2.436195
  C      1.690245    2.952676    0.096804
  C     -2.905977   -1.199343    0.167855
  H      2.046483    3.876621   -0.362095
  H     -3.707722   -1.895215    0.421499
  H      0.876864    3.197105    0.783296
  H     -2.862742   -1.094596   -0.915985
  H     -3.139257   -0.224550    0.596990
  H      2.512177    2.520584    0.670843

 Multiplicity           Mult            ....    1
 Number of Electrons    NEL             ....  100
 Basis Dimension        Dim             ....  523

ORBITAL ENERGIES
----------------

  NO   OCC          E(Eh)            E(eV)
   0   2.0000     -14.433129      -392.7454
   1   2.0000     -14.433107      -392.7448
   2   2.0000     -10.304745      -280.4064
   3   2.0000     -10.304626      -280.4031
   4   2.0000     -10.275151      -279.6011
   5   2.0000     -10.274366      -279.5797
   6   2.0000     -10.261343      -279.2253
   7   2.0000     -10.240665      -278.6627
   8   2.0000     -10.240629      -278.6617
   9   2.0000     -10.240478      -278.6576
  10   2.0000     -10.240429      -278.6562
  11   2.0000     -10.237287      -278.5707
  12   2.0000     -10.237153      -278.5671
  13   2.0000      -1.154005       -31.4021
  14   2.0000      -1.050866       -28.5955
  15   2.0000      -0.958767       -26.0894
  16   2.0000      -0.908953       -24.7339
  17   2.0000      -0.873963       -23.7817
  18   2.0000      -0.818464       -22.2715
  19   2.0000      -0.818141       -22.2627
  20   2.0000      -0.817887       -22.2558
  21   2.0000      -0.812657       -22.1135
  22   2.0000      -0.761268       -20.7151
  23   2.0000      -0.723253       -19.6807
  24   2.0000      -0.662411       -18.0251
  25   2.0000      -0.653162       -17.7734
  26   2.0000      -0.620068       -16.8729
  27   2.0000      -0.582739       -15.8571
  28   2.0000      -0.580724       -15.8023
  29   2.0000      -0.559586       -15.2271
  30   2.0000      -0.557748       -15.1771
  31   2.0000      -0.551910       -15.0182
  32   2.0000      -0.536359       -14.5951
  33   2.0000      -0.531986       -14.4761
  34   2.0000      -0.527981       -14.3671
  35   2.0000      -0.505127       -13.7452
  36   2.0000      -0.491739       -13.3809
  37   2.0000      -0.483539       -13.1578
  38   2.0000      -0.482703       -13.1350
  39   2.0000      -0.474795       -12.9198
  40   2.0000      -0.468130       -12.7385
  41   2.0000      -0.467967       -12.7340
  42   2.0000      -0.461341       -12.5537
  43   2.0000      -0.447858       -12.1868
  44   2.0000      -0.437814       -11.9135
  45   2.0000      -0.434836       -11.8325
  46   2.0000      -0.429741       -11.6939
  47   2.0000      -0.366039        -9.9604
  48   2.0000      -0.326015        -8.8713
  49   2.0000      -0.321828        -8.7574
  50   0.0000       0.113088         3.0773
  51   0.0000       0.113389         3.0855
  52   0.0000       0.117051         3.1851
  53   0.0000       0.127219         3.4618
  54   0.0000       0.157124         4.2756

MULLIKEN ATOMIC CHARGES
-----------------------
   0 C :   -0.180150
   1 C :   -0.179886
   2 N :    0.039602
   3 N :    0.039985
   4 C :   -0.377717
   5 H :    0.215772
   6 H :    0.215766
   7 C :    0.034586
   8 C :    0.034317
   9 C :   -0.337630
  10 C :   -0.402328
  11 C :   -0.400686
  12 C :   -0.400953
  13 H :    0.125977
  14 H :    0.136025
  15 H :    0.135717
  16 H :    0.136823
  17 H :    0.125730
  18 H :    0.136019
  19 H :    0.137106
  20 H :    0.135845
  21 H :    0.142333
  22 H :    0.139883
  23 H :    0.140861
  24 H :    0.140887
  25 C :   -0.402265
  26 C :   -0.337236
  27 H :    0.140083
  28 H :    0.142229
  29 H :    0.136040
  30 H :    0.125363
  31 H :    0.126026
  32 H :    0.135876
Sum of atomic charges:    0.0000000

LOEWDIN ATOMIC CHARGES
----------------------
   0 C :   -0.218333
   1 C :   -0.218362
   2 N :    0.244130
   3 N :    0.244322
   4 C :   -0.379435
   5 H :    0.149737
   6 H :    0.149738
   7 C :   -0.356880
   8 C :   -0.357177
   9 C :   -0.266028
  10 C :   -0.253884
  11 C :   -0.254147
  12 C :   -0.254247
  13 H :    0.123724
  14 H :    0.125693
  15 H :    0.125169
  16 H :    0.127835
  17 H :    0.122611
  18 H :    0.127440
  19 H :    0.127893
  20 H :    0.125128
  21 H :    0.130930
  22 H :    0.130698
  23 H :    0.131229
  24 H :    0.131304
  25 C :   -0.253913
  26 C :   -0.266182
  27 H :    0.130732
  28 H :    0.130868
  29 H :    0.127363
  30 H :    0.122773
  31 H :    0.123572
  32 H :    0.125699

  Mayer bond orders larger than 0.100000
B(  0-C ,  1-C ) :   1.7856 B(  0-C ,  2-N ) :   1.0875 B(  0-C ,  5-H ) :   0.9299
B(  1-C ,  3-N ) :   1.0874 B(  1-C ,  6-H ) :   0.9298 B(  2-N ,  4-C ) :   1.1781
B(  2-N ,  7-C ) :   0.8807 B(  3-N ,  4-C ) :   1.1787 B(  3-N ,  8-C ) :   0.8808
B(  7-C ,  9-C ) :   0.9563 B(  7-C , 12-C ) :   0.9677 B(  7-C , 25-C ) :   0.9729
B(  8-C , 10-C ) :   0.9728 B(  8-C , 11-C ) :   0.9675 B(  8-C , 26-C ) :   0.9560
B(  9-C , 13-H ) :   0.9753 B(  9-C , 17-H ) :   0.9732 B(  9-C , 21-H ) :   0.9768
B( 10-C , 14-H ) :   0.9649 B( 10-C , 18-H ) :   0.9755 B( 10-C , 22-H ) :   0.9785
B( 11-C , 15-H ) :   0.9660 B( 11-C , 19-H ) :   0.9765 B( 11-C , 23-H ) :   0.9778
B( 12-C , 16-H ) :   0.9765 B( 12-C , 20-H ) :   0.9659 B( 12-C , 24-H ) :   0.9778
B( 25-C , 27-H ) :   0.9784 B( 25-C , 29-H ) :   0.9756 B( 25-C , 32-H ) :   0.9648
B( 26-C , 28-H ) :   0.9767 B( 26-C , 30-H ) :   0.9736 B( 26-C , 31-H ) :   0.9751

Dispersion correction           -0.005727303
FINAL SINGLE POINT ENERGY      -540.763577586489

DIPOLE MOMENT
-------------
                                X             Y             Z
Electronic contribution:      2.84767      -1.43049       1.55915
Nuclear contribution   :     -1.73581       0.88509      -0.93406
                        -----------------------------------------
Total Dipole Moment    :      1.11186      -0.54541       0.62509
                        -----------------------------------------
Magnitude (a.u.)       :      1.38724
Magnitude (Debye)      :      3.52608

Dispersion correction in the Hessian             ... Starting D4

VIBRATIONAL FREQUENCIES
-----------------------

Scaling factor for frequencies =  1.000000000  (already applied!)

   0:         0.00 cm**-1
   1:         0.00 cm**-1
   2:         0.00 cm**-1
   3:         0.00 cm**-1
   4:         0.00 cm**-1
   5:         0.00 cm**-1
   6:        31.86 cm**-1
   7:        41.92 cm**-1
   8:       126.08 cm**-1
   9:       155.31 cm**-1
  10:       156.53 cm**-1
  11:       218.13 cm**-1
  12:       233.25 cm**-1
  13:       260.95 cm**-1
  14:       272.33 cm**-1
  15:       277.64 cm**-1
  16:       287.22 cm**-1
  17:       293.82 cm**-1
  18:       304.22 cm**-1
  19:       348.79 cm**-1
  20:       352.60 cm**-1
  21:       368.57 cm**-1
  22:       376.72 cm**-1
  23:       408.18 cm**-1
  24:       453.31 cm**-1
  25:       474.46 cm**-1
  26:       476.50 cm**-1
  27:       531.49 cm**-1
  28:       577.74 cm**-1
  29:       654.60 cm**-1
  30:       666.80 cm**-1
  31:       686.78 cm**-1
  32:       766.14 cm**-1
  33:       843.83 cm**-1
  34:       854.11 cm**-1
  35:       895.16 cm**-1
  36:       944.32 cm**-1
  37:       945.37 cm**-1
  38:       956.33 cm**-1
  39:       957.35 cm**-1
  40:       976.05 cm**-1
  41:       976.52 cm**-1
  42:      1004.89 cm**-1
  43:      1023.02 cm**-1
  44:      1051.90 cm**-1
  45:      1053.09 cm**-1
  46:      1059.57 cm**-1
  47:      1061.75 cm**-1
  48:      1129.35 cm**-1
  49:      1172.75 cm**-1
  50:      1222.22 cm**-1
  51:      1254.76 cm**-1
  52:      1257.14 cm**-1
  53:      1272.26 cm**-1
  54:      1273.41 cm**-1
  55:      1282.89 cm**-1
  56:      1351.81 cm**-1
  57:      1367.75 cm**-1
  58:      1386.35 cm**-1
  59:      1405.05 cm**-1
  60:      1405.27 cm**-1
  61:      1410.75 cm**-1
  62:      1413.68 cm**-1
  63:      1424.58 cm**-1
  64:      1425.67 cm**-1
  65:      1454.90 cm**-1
  66:      1465.94 cm**-1
  67:      1466.08 cm**-1
  68:      1471.01 cm**-1
  69:      1472.92 cm**-1
  70:      1474.14 cm**-1
  71:      1475.62 cm**-1
  72:      1487.11 cm**-1
  73:      1487.74 cm**-1
  74:      1493.43 cm**-1
  75:      1494.40 cm**-1
  76:      1501.01 cm**-1
  77:      1503.68 cm**-1
  78:      1647.85 cm**-1
  79:      3063.41 cm**-1
  80:      3063.43 cm**-1
  81:      3067.25 cm**-1
  82:      3067.40 cm**-1
  83:      3076.59 cm**-1
  84:      3076.85 cm**-1
  85:      3145.17 cm**-1
  86:      3145.23 cm**-1
  87:      3147.36 cm**-1
  88:      3147.38 cm**-1
  89:      3148.84 cm**-1
  90:      3148.89 cm**-1
  91:      3152.03 cm**-1
  92:      3152.17 cm**-1
  93:      3156.72 cm**-1
  94:      3157.35 cm**-1
  95:      3164.71 cm**-1
  96:      3166.03 cm**-1
  97:      3289.33 cm**-1
  98:      3309.57 cm**-1

IR SPECTRUM
-----------

 Mode   freq       eps      Int      T**2         TX        TY        TZ
       cm**-1   L/(mol*cm) km/mol    a.u.
----------------------------------------------------------------------------
  6:     31.86   0.000002    0.01  0.000020  ( 0.001670  0.002632  0.003252)
  7:     41.92   0.000002    0.01  0.000015  (-0.001214 -0.000284  0.003652)
  8:    126.08   0.004428   22.38  0.010960  ( 0.020679 -0.056061 -0.085964)
  9:    155.31   0.000229    1.16  0.000460  (-0.017450  0.011403 -0.005020)
 10:    156.53   0.000404    2.04  0.000806  (-0.021362  0.007736 -0.017024)
 11:    218.13   0.000262    1.32  0.000375  (-0.003033  0.012053  0.014848)
 12:    233.25   0.000070    0.36  0.000094  (-0.001824 -0.006115 -0.007302)
 13:    260.95   0.000024    0.12  0.000029  ( 0.002037  0.004037 -0.002859)
 14:    272.33   0.000086    0.43  0.000098  (-0.007329 -0.005102  0.004276)
 15:    277.64   0.000226    1.14  0.000254  ( 0.008282  0.010528 -0.008623)
 16:    287.22   0.000205    1.03  0.000222  (-0.009832 -0.009086  0.006561)
 17:    293.82   0.000032    0.16  0.000034  ( 0.002354 -0.001316 -0.005195)
 18:    304.22   0.000014    0.07  0.000014  ( 0.000663 -0.003713 -0.000173)
 19:    348.79   0.001177    5.95  0.001053  ( 0.009688 -0.016324 -0.026315)
 20:    352.60   0.000151    0.76  0.000133  (-0.005800 -0.000209 -0.009976)
 21:    368.57   0.000007    0.03  0.000006  (-0.000620 -0.001992  0.001101)
 22:    376.72   0.001046    5.29  0.000867  (-0.015491 -0.023972  0.007203)
 23:    408.18   0.000121    0.61  0.000093  ( 0.006221  0.004759 -0.005599)
 24:    453.31   0.001996   10.09  0.001374  ( 0.008126 -0.018300 -0.031198)
 25:    474.46   0.000002    0.01  0.000001  (-0.000342 -0.000507 -0.000844)
 26:    476.50   0.000141    0.71  0.000092  ( 0.007796 -0.003959  0.003985)
 27:    531.49   0.001359    6.87  0.000798  (-0.015823 -0.021484  0.009261)
 28:    577.74   0.000385    1.94  0.000208  ( 0.011453 -0.006009  0.006369)
 29:    654.60   0.004822   24.37  0.002299  ( 0.028055  0.033272 -0.020117)
 30:    666.80   0.001539    7.78  0.000720  (-0.001947  0.018004  0.019803)
 31:    686.78   0.000037    0.19  0.000017  (-0.000618  0.002155  0.003456)
 32:    766.14   0.019395   98.02  0.007900  (-0.016750  0.047876  0.072989)
 33:    843.83   0.000072    0.37  0.000027  ( 0.004334 -0.002004  0.001987)
 34:    854.11   0.001776    8.97  0.000649  ( 0.014103  0.019221 -0.008971)
 35:    895.16   0.000155    0.78  0.000054  (-0.000770  0.003693  0.006300)
 36:    944.32   0.000160    0.81  0.000053  (-0.003535  0.002875  0.005672)
 37:    945.37   0.000120    0.60  0.000039  (-0.001310  0.001533  0.005949)
 38:    956.33   0.000592    2.99  0.000193  (-0.009503  0.007150 -0.007186)
 39:    957.35   0.000195    0.99  0.000064  ( 0.007635  0.001556  0.001700)
 40:    976.05   0.000044    0.22  0.000014  (-0.001209  0.001996  0.002937)
 41:    976.52   0.000037    0.19  0.000012  ( 0.000294 -0.002209 -0.002647)
 42:   1004.89   0.002580   13.04  0.000801  ( 0.016080  0.020815 -0.010457)
 43:   1023.02   0.000382    1.93  0.000117  (-0.007645  0.005200 -0.005575)
 44:   1051.90   0.000018    0.09  0.000005  ( 0.001200 -0.000704  0.001827)
 45:   1053.09   0.000026    0.13  0.000008  ( 0.002409 -0.001283  0.000403)
 46:   1059.57   0.000242    1.22  0.000071  ( 0.000659 -0.003366 -0.007712)
 47:   1061.75   0.000231    1.17  0.000068  (-0.003285  0.004335  0.006190)
 48:   1129.35   0.003285   16.60  0.000908  (-0.022947  0.013539 -0.014065)
 49:   1172.75   0.002211   11.17  0.000588  (-0.015402 -0.016063  0.009645)
 50:   1222.22   0.000629    3.18  0.000161  (-0.009684  0.005824 -0.005740)
 51:   1254.76   0.021397  108.13  0.005322  (-0.041440 -0.055826  0.022086)
 52:   1257.14   0.000660    3.33  0.000164  (-0.005425  0.009340 -0.006863)
 53:   1272.26   0.000107    0.54  0.000026  ( 0.000332 -0.001623 -0.004846)
 54:   1273.41   0.007144   36.10  0.001751  ( 0.005191 -0.026211 -0.032197)
 55:   1282.89   0.039038  197.28  0.009496  (-0.055960 -0.070261  0.037788)
 56:   1351.81   0.003516   17.77  0.000812  (-0.016460 -0.021155  0.009653)
 57:   1367.75   0.003484   17.61  0.000795  (-0.022809  0.010969 -0.012423)
 58:   1386.35   0.000209    1.06  0.000047  ( 0.005665 -0.002175  0.003208)
 59:   1405.05   0.004969   25.11  0.001104  ( 0.008654 -0.022720 -0.022638)
 60:   1405.27   0.004584   23.16  0.001018  (-0.001392 -0.016322 -0.027378)
 61:   1410.75   0.000848    4.28  0.000188  (-0.002923  0.001910 -0.013242)
 62:   1413.68   0.013696   69.22  0.003023  ( 0.044751 -0.022462  0.022720)
 63:   1424.58   0.001810    9.15  0.000397  ( 0.015528  0.010321 -0.006994)
 64:   1425.67   0.001001    5.06  0.000219  ( 0.001578  0.010946 -0.009837)
 65:   1454.90   0.018991   95.97  0.004073  ( 0.035942  0.047149 -0.023634)
 66:   1465.94   0.000068    0.34  0.000014  ( 0.000230  0.000381 -0.003774)
 67:   1466.08   0.000688    3.48  0.000146  (-0.004873  0.002388  0.010813)
 68:   1471.01   0.000003    0.02  0.000001  (-0.000372  0.000543  0.000499)
 69:   1472.92   0.000076    0.38  0.000016  ( 0.002593  0.003048  0.000062)
 70:   1474.14   0.000004    0.02  0.000001  (-0.000512 -0.000720 -0.000298)
 71:   1475.62   0.000047    0.24  0.000010  (-0.001806 -0.002528  0.000574)
 72:   1487.11   0.001291    6.52  0.000271  (-0.001677  0.008456  0.014017)
 73:   1487.74   0.001071    5.41  0.000225  (-0.006135  0.008929  0.010360)
 74:   1493.43   0.003145   15.89  0.000657  ( 0.011156 -0.019718  0.011997)
 75:   1494.40   0.003004   15.18  0.000627  (-0.023149 -0.007606 -0.005800)
 76:   1501.01   0.001853    9.36  0.000385  (-0.009308 -0.015886  0.006795)
 77:   1503.68   0.000690    3.49  0.000143  (-0.011440 -0.003440 -0.000663)
 78:   1647.85   0.000048    0.24  0.000009  ( 0.002372 -0.001277  0.001364)
 79:   3063.41   0.010936   55.27  0.001114  (-0.006157  0.021361  0.024897)
 80:   3063.43   0.003843   19.42  0.000392  (-0.000829 -0.009984 -0.017063)
 81:   3067.25   0.003294   16.65  0.000335  ( 0.001530  0.008389 -0.016199)
 82:   3067.40   0.004879   24.66  0.000496  (-0.021015  0.006302 -0.003879)
 83:   3076.59   0.003325   16.80  0.000337  ( 0.018315  0.001331  0.000137)
 84:   3076.85   0.003650   18.45  0.000370  ( 0.007000 -0.011980  0.013329)
 85:   3145.17   0.005475   27.67  0.000543  ( 0.017911 -0.009369 -0.011602)
 86:   3145.23   0.004490   22.69  0.000445  (-0.007005  0.002101 -0.019799)
 87:   3147.36   0.005120   25.88  0.000508  ( 0.013961  0.014845  0.009614)
 88:   3147.38   0.006685   33.78  0.000663  ( 0.015595 -0.018639  0.008498)
 89:   3148.84   0.002148   10.86  0.000213  ( 0.006967  0.007636 -0.010297)
 90:   3148.89   0.001020    5.15  0.000101  ( 0.009763 -0.000660 -0.002303)
 91:   3152.03   0.001130    5.71  0.000112  (-0.009621  0.002263  0.003765)
 92:   3152.17   0.013435   67.89  0.001330  (-0.028656  0.012341 -0.018883)
 93:   3156.72   0.026847  135.67  0.002654  (-0.021923 -0.045130  0.011693)
 94:   3157.35   0.008773   44.33  0.000867  (-0.022012 -0.019097  0.004225)
 95:   3164.71   0.008253   41.71  0.000814  ( 0.008163 -0.008615 -0.025942)
 96:   3166.03   0.005910   29.86  0.000582  (-0.011909  0.004968  0.020396)
 97:   3289.33   0.000870    4.39  0.000082  (-0.004806 -0.006883  0.003466)
 98:   3309.57   0.000007    0.03  0.000001  ( 0.000454 -0.000551  0.000330)

--------------------------
THERMOCHEMISTRY AT 298.15K
--------------------------

Temperature         ... 298.15 K
Pressure            ... 1.00 atm
Total Mass          ... 180.29 AMU

Throughout the following assumptions are being made:
  (1) The electronic state is orbitally nondegenerate
  (2) There are no thermally accessible electronically excited states
  (3) Hindered rotations indicated by low frequency modes are not
      treated as such but are treated as vibrations and this may
      cause some error
  (4) All equations used are the standard statistical mechanics
      equations for an ideal gas
  (5) All vibrations are strictly harmonic

freq.      31.86  E(vib)   ...       0.55
freq.      41.92  E(vib)   ...       0.53
freq.     126.08  E(vib)   ...       0.43
freq.     155.31  E(vib)   ...       0.40
freq.     156.53  E(vib)   ...       0.40
freq.     218.13  E(vib)   ...       0.33
freq.     233.25  E(vib)   ...       0.32
freq.     260.95  E(vib)   ...       0.30
freq.     272.33  E(vib)   ...       0.29
freq.     277.64  E(vib)   ...       0.28
freq.     287.22  E(vib)   ...       0.27
freq.     293.82  E(vib)   ...       0.27
freq.     304.22  E(vib)   ...       0.26
freq.     348.79  E(vib)   ...       0.23
freq.     352.60  E(vib)   ...       0.22
freq.     368.57  E(vib)   ...       0.21
freq.     376.72  E(vib)   ...       0.21
freq.     408.18  E(vib)   ...       0.19
freq.     453.31  E(vib)   ...       0.16
freq.     474.46  E(vib)   ...       0.15
freq.     476.50  E(vib)   ...       0.15
freq.     531.49  E(vib)   ...       0.13
freq.     577.74  E(vib)   ...       0.11
freq.     654.60  E(vib)   ...       0.08
freq.     666.80  E(vib)   ...       0.08
freq.     686.78  E(vib)   ...       0.07
freq.     766.14  E(vib)   ...       0.06
freq.     843.83  E(vib)   ...       0.04
freq.     854.11  E(vib)   ...       0.04
freq.     895.16  E(vib)   ...       0.03
freq.     944.32  E(vib)   ...       0.03
freq.     945.37  E(vib)   ...       0.03
freq.     956.33  E(vib)   ...       0.03
freq.     957.35  E(vib)   ...       0.03
freq.     976.05  E(vib)   ...       0.03
freq.     976.52  E(vib)   ...       0.03
freq.    1004.89  E(vib)   ...       0.02
freq.    1023.02  E(vib)   ...       0.02
freq.    1051.90  E(vib)   ...       0.02
freq.    1053.09  E(vib)   ...       0.02
freq.    1059.57  E(vib)   ...       0.02
freq.    1061.75  E(vib)   ...       0.02
freq.    1129.35  E(vib)   ...       0.01
freq.    1172.75  E(vib)   ...       0.01
freq.    1222.22  E(vib)   ...       0.01
freq.    1254.76  E(vib)   ...       0.01
freq.    1257.14  E(vib)   ...       0.01
freq.    1272.26  E(vib)   ...       0.01
freq.    1273.41  E(vib)   ...       0.01
freq.    1282.89  E(vib)   ...       0.01
freq.    1351.81  E(vib)   ...       0.01
freq.    1367.75  E(vib)   ...       0.01
freq.    1386.35  E(vib)   ...       0.00
freq.    1405.05  E(vib)   ...       0.00
freq.    1405.27  E(vib)   ...       0.00
freq.    1410.75  E(vib)   ...       0.00
freq.    1413.68  E(vib)   ...       0.00
freq.    1424.58  E(vib)   ...       0.00
freq.    1425.67  E(vib)   ...       0.00
freq.    1454.90  E(vib)   ...       0.00
freq.    1465.94  E(vib)   ...       0.00
freq.    1466.08  E(vib)   ...       0.00
freq.    1471.01  E(vib)   ...       0.00
freq.    1472.92  E(vib)   ...       0.00
freq.    1474.14  E(vib)   ...       0.00
freq.    1475.62  E(vib)   ...       0.00
freq.    1487.11  E(vib)   ...       0.00
freq.    1487.74  E(vib)   ...       0.00
freq.    1493.43  E(vib)   ...       0.00
freq.    1494.40  E(vib)   ...       0.00
freq.    1501.01  E(vib)   ...       0.00
freq.    1503.68  E(vib)   ...       0.00
freq.    1647.85  E(vib)   ...       0.00
freq.    3063.41  E(vib)   ...       0.00
freq.    3063.43  E(vib)   ...       0.00
freq.    3067.25  E(vib)   ...       0.00
freq.    3067.40  E(vib)   ...       0.00
freq.    3076.59  E(vib)   ...       0.00
freq.    3076.85  E(vib)   ...       0.00
freq.    3145.17  E(vib)   ...       0.00
freq.    3145.23  E(vib)   ...       0.00
freq.    3147.36  E(vib)   ...       0.00
freq.    3147.38  E(vib)   ...       0.00
freq.    3148.84  E(vib)   ...       0.00
freq.    3148.89  E(vib)   ...       0.00
freq.    3152.03  E(vib)   ...       0.00
freq.    3152.17  E(vib)   ...       0.00
freq.    3156.72  E(vib)   ...       0.00
freq.    3157.35  E(vib)   ...       0.00
freq.    3164.71  E(vib)   ...       0.00
freq.    3166.03  E(vib)   ...       0.00
freq.    3289.33  E(vib)   ...       0.00
freq.    3309.57  E(vib)   ...       0.00

------------
INNER ENERGY
------------

The inner energy is: U= E(el) + E(ZPE) + E(vib) + E(rot) + E(trans)
    E(el)   - is the total energy from the electronic structure calculation
              = E(kin-el) + E(nuc-el) + E(el-el) + E(nuc-nuc)
    E(ZPE)  - the the zero temperature vibrational energy from the frequency calculation
    E(vib)  - the the finite temperature correction to E(ZPE) due to population
              of excited vibrational states
    E(rot)  - is the rotational thermal energy
    E(trans)- is the translational thermal energy

Summary of contributions to the inner energy U:
Electronic energy                ...   -540.76357759 Eh
Zero point energy                ...      0.29753430 Eh     186.71 kcal/mol
Thermal vibrational correction   ...      0.01155254 Eh       7.25 kcal/mol
Thermal rotational correction    ...      0.00141627 Eh       0.89 kcal/mol
Thermal translational correction ...      0.00141627 Eh       0.89 kcal/mol
-----------------------------------------------------------------------
Total thermal energy                   -540.45165821 Eh

Summary of corrections to the electronic energy:
(perhaps to be used in another calculation)
Total thermal correction                  0.01438508 Eh       9.03 kcal/mol
Non-thermal (ZPE) correction              0.29753430 Eh     186.71 kcal/mol
-----------------------------------------------------------------------
Total correction                          0.31191938 Eh     195.73 kcal/mol

--------
ENTHALPY
--------

The enthalpy is H = U + kB*T
                kB is Boltzmann's constant
Total free energy                 ...   -540.45165821 Eh
Thermal Enthalpy correction       ...      0.00094421 Eh       0.59 kcal/mol
-----------------------------------------------------------------------
Total Enthalpy                    ...   -540.45071400 Eh

Note: Only C1 symmetry has been detected, increase convergence thresholds
      if your molecule has a higher symmetry. Symmetry factor of 1.0 is
      used for the rotational entropy correction.

Note: Rotational entropy computed according to Herzberg
Infrared and Raman Spectra, Chapter V,1, Van Nostrand Reinhold, 1945

Rotational constants in cm-1:     0.056716     0.014873     0.013942

                             ****ORCA TERMINATED NORMALLY****
TOTAL RUN TIME: 0 days 1 hours 32 minutes 44 seconds 811 msec
