                         Program Version 5.0.4 -  RELEASE  -
|  1> # ORCA 5.0.4 - /users/bwb16179/postgrad/2024_06/pKa_Reviewer_Comments/Aq_Z=0/6_deprot.inp # write input file
|  2> # Basic Mode
|  3> #
|  4> ! Opt Freq wB97X Def2-TZVP D4 SlowConv TightSCF Defgrid2 Def2/J RIJCOSX CPCM(Water)
|  5>
|  6> %PAL NPROCS 4 END
|  7>
|  8> %maxcore 4500
|  9>
| 10> %geom
| 11> Maxiter 150
| 12> END
| 13>
| 14> * xyzfile 0 1 6_deprot.xyz
| 15>
| 16>                          ****END OF INPUT****
 Total Charge           Charge          ....    0
 Multiplicity           Mult            ....    1
 Number of Electrons    NEL             ....  100
Dispersion correction           -0.005728672
FINAL SINGLE POINT ENERGY      -540.770168379855
Dispersion correction            ... Starting D4
Dispersion correction           -0.005739384
FINAL SINGLE POINT ENERGY      -540.771452829387
Dispersion correction            ... Starting D4
Dispersion correction           -0.005739291
FINAL SINGLE POINT ENERGY      -540.771471361341
Dispersion correction            ... Starting D4
Dispersion correction           -0.005738775
FINAL SINGLE POINT ENERGY      -540.771479437446
Dispersion correction            ... Starting D4
                    ***********************HURRAY********************

CARTESIAN COORDINATES (ANGSTROEM)
---------------------------------
  C      0.000003    0.676154   -1.275693
  C      0.000003   -0.676152   -1.275693
  C      0.000008    0.000001    0.902887
  N      0.000005    1.058642    0.063253
  N      0.000005   -1.058640    0.063254
  C     -0.000003    1.638645   -2.412625
  C     -0.000001   -1.638645   -2.412623
  H     -0.882563    2.282504   -2.397342
  H     -0.882559   -2.282506   -2.397337
  H      0.882555   -2.282509   -2.397341
  H      0.882551    2.282512   -2.397345
  H     -0.000002    1.095034   -3.356595
  H     -0.000003   -1.095036   -3.356595
  C     -1.262591    2.770513    1.306068
  C     -1.262593   -2.770514    1.306065
  C      1.262591   -2.770518    1.306072
  C      1.262594    2.770519    1.306069
  C      0.000002    2.452864    0.519206
  C      0.000002   -2.452863    0.519206
  H     -2.153866    2.548510    0.716027
  H     -2.153866   -2.548512    0.716022
  H      2.153870   -2.548522    0.716035
  H      2.153870    2.548524    0.716028
  H     -1.299268    2.181827    2.224476
  H     -1.299272   -2.181830    2.224473
  H      1.299268   -2.181832    2.224479
  H      1.299274    2.181830    2.224475
  H     -1.278534    3.829146    1.571642
  H     -1.278536   -3.829148    1.571637
  H      1.278527   -3.829151    1.571648
  H      1.278530    3.829151    1.571647
  H      0.000001    3.063186   -0.384529
  H      0.000004   -3.063184   -0.384529

 Multiplicity           Mult            ....    1
 Number of Electrons    NEL             ....  100
 Basis Dimension        Dim             ....  523

ORBITAL ENERGIES
----------------

  NO   OCC          E(Eh)            E(eV)
   0   2.0000     -14.427150      -392.5827
   1   2.0000     -14.427125      -392.5820
   2   2.0000     -10.291836      -280.0551
   3   2.0000     -10.291830      -280.0549
   4   2.0000     -10.276648      -279.6418
   5   2.0000     -10.275913      -279.6218
   6   2.0000     -10.257157      -279.1114
   7   2.0000     -10.252255      -278.9780
   8   2.0000     -10.252244      -278.9777
   9   2.0000     -10.238734      -278.6101
  10   2.0000     -10.238733      -278.6101
  11   2.0000     -10.238726      -278.6099
  12   2.0000     -10.238726      -278.6099
  13   2.0000      -1.150169       -31.2977
  14   2.0000      -1.044685       -28.4273
  15   2.0000      -0.943434       -25.6721
  16   2.0000      -0.908631       -24.7251
  17   2.0000      -0.895811       -24.3763
  18   2.0000      -0.848167       -23.0798
  19   2.0000      -0.814044       -22.1513
  20   2.0000      -0.813521       -22.1370
  21   2.0000      -0.792655       -21.5692
  22   2.0000      -0.771631       -20.9971
  23   2.0000      -0.702955       -19.1284
  24   2.0000      -0.683129       -18.5889
  25   2.0000      -0.647476       -17.6187
  26   2.0000      -0.622153       -16.9296
  27   2.0000      -0.584305       -15.8998
  28   2.0000      -0.558786       -15.2053
  29   2.0000      -0.558055       -15.1854
  30   2.0000      -0.552721       -15.0403
  31   2.0000      -0.537345       -14.6219
  32   2.0000      -0.534718       -14.5504
  33   2.0000      -0.521601       -14.1935
  34   2.0000      -0.511415       -13.9163
  35   2.0000      -0.509572       -13.8662
  36   2.0000      -0.509266       -13.8578
  37   2.0000      -0.495561       -13.4849
  38   2.0000      -0.489975       -13.3329
  39   2.0000      -0.488107       -13.2821
  40   2.0000      -0.474900       -12.9227
  41   2.0000      -0.466493       -12.6939
  42   2.0000      -0.459599       -12.5063
  43   2.0000      -0.453867       -12.3504
  44   2.0000      -0.441894       -12.0245
  45   2.0000      -0.440867       -11.9966
  46   2.0000      -0.432108       -11.7582
  47   2.0000      -0.360376        -9.8063
  48   2.0000      -0.321933        -8.7603
  49   2.0000      -0.303353        -8.2547
  50   0.0000       0.109843         2.9890
  51   0.0000       0.114173         3.1068
  52   0.0000       0.126705         3.4478
  53   0.0000       0.136265         3.7080
  54   0.0000       0.139947         3.8081

MULLIKEN ATOMIC CHARGES
-----------------------
   0 C :   -0.008741
   1 C :   -0.008512
   2 C :   -0.358762
   3 N :   -0.003179
   4 N :   -0.003113
   5 C :   -0.382674
   6 C :   -0.382804
   7 H :    0.157022
   8 H :    0.157019
   9 H :    0.157017
  10 H :    0.157023
  11 H :    0.137794
  12 H :    0.137812
  13 C :   -0.377352
  14 C :   -0.377353
  15 C :   -0.377354
  16 C :   -0.377370
  17 C :   -0.023471
  18 C :   -0.023480
  19 H :    0.129731
  20 H :    0.129735
  21 H :    0.129738
  22 H :    0.129735
  23 H :    0.123577
  24 H :    0.123581
  25 H :    0.123575
  26 H :    0.123586
  27 H :    0.135582
  28 H :    0.135590
  29 H :    0.135583
  30 H :    0.135581
  31 H :    0.122440
  32 H :    0.122444
Sum of atomic charges:   -0.0000000

LOEWDIN ATOMIC CHARGES
----------------------
   0 C :   -0.222702
   1 C :   -0.222701
   2 C :   -0.395863
   3 N :    0.243555
   4 N :    0.243556
   5 C :   -0.263767
   6 C :   -0.263767
   7 H :    0.132985
   8 H :    0.132984
   9 H :    0.132985
  10 H :    0.132985
  11 H :    0.135390
  12 H :    0.135390
  13 C :   -0.282588
  14 C :   -0.282588
  15 C :   -0.282588
  16 C :   -0.282588
  17 C :   -0.296618
  18 C :   -0.296618
  19 H :    0.123747
  20 H :    0.123747
  21 H :    0.123748
  22 H :    0.123747
  23 H :    0.120946
  24 H :    0.120946
  25 H :    0.120945
  26 H :    0.120946
  27 H :    0.127061
  28 H :    0.127061
  29 H :    0.127061
  30 H :    0.127061
  31 H :    0.157772
  32 H :    0.157771

  Mayer bond orders larger than 0.100000
B(  0-C ,  1-C ) :   1.7377 B(  0-C ,  3-N ) :   1.1545 B(  0-C ,  5-C ) :   0.8390
B(  1-C ,  4-N ) :   1.1546 B(  1-C ,  6-C ) :   0.8387 B(  2-C ,  3-N ) :   1.1770
B(  2-C ,  4-N ) :   1.1769 B(  3-N , 17-C ) :   0.8662 B(  4-N , 18-C ) :   0.8661
B(  5-C ,  7-H ) :   0.9811 B(  5-C , 10-H ) :   0.9811 B(  5-C , 11-H ) :   0.9926
B(  6-C ,  8-H ) :   0.9811 B(  6-C ,  9-H ) :   0.9811 B(  6-C , 12-H ) :   0.9926
B( 13-C , 17-C ) :   0.9633 B( 13-C , 19-H ) :   0.9779 B( 13-C , 23-H ) :   0.9725
B( 13-C , 27-H ) :   0.9786 B( 14-C , 18-C ) :   0.9633 B( 14-C , 20-H ) :   0.9778
B( 14-C , 24-H ) :   0.9725 B( 14-C , 28-H ) :   0.9786 B( 15-C , 18-C ) :   0.9633
B( 15-C , 21-H ) :   0.9779 B( 15-C , 25-H ) :   0.9725 B( 15-C , 29-H ) :   0.9786
B( 16-C , 17-C ) :   0.9633 B( 16-C , 22-H ) :   0.9778 B( 16-C , 26-H ) :   0.9725
B( 16-C , 30-H ) :   0.9786 B( 17-C , 31-H ) :   0.9783 B( 18-C , 32-H ) :   0.9783

Dispersion correction           -0.005738548
FINAL SINGLE POINT ENERGY      -540.771481031000

DIPOLE MOMENT
-------------
                                X             Y             Z
Electronic contribution:      0.00004       0.00001      -2.69960
Nuclear contribution   :     -0.00005      -0.00001       0.89419
                        -----------------------------------------
Total Dipole Moment    :     -0.00001      -0.00000      -1.80541
                        -----------------------------------------
Magnitude (a.u.)       :      1.80541
Magnitude (Debye)      :      4.58899

Dispersion correction in the Hessian             ... Starting D4

VIBRATIONAL FREQUENCIES
-----------------------

Scaling factor for frequencies =  1.000000000  (already applied!)

   0:         0.00 cm**-1
   1:         0.00 cm**-1
   2:         0.00 cm**-1
   3:         0.00 cm**-1
   4:         0.00 cm**-1
   5:         0.00 cm**-1
   6:        29.95 cm**-1
   7:        47.32 cm**-1
   8:        89.32 cm**-1
   9:       111.66 cm**-1
  10:       155.39 cm**-1
  11:       213.68 cm**-1
  12:       219.13 cm**-1
  13:       232.15 cm**-1
  14:       232.50 cm**-1
  15:       259.56 cm**-1
  16:       260.74 cm**-1
  17:       276.43 cm**-1
  18:       280.04 cm**-1
  19:       284.40 cm**-1
  20:       290.10 cm**-1
  21:       325.51 cm**-1
  22:       326.28 cm**-1
  23:       405.02 cm**-1
  24:       422.81 cm**-1
  25:       477.37 cm**-1
  26:       491.84 cm**-1
  27:       549.50 cm**-1
  28:       615.14 cm**-1
  29:       635.04 cm**-1
  30:       679.11 cm**-1
  31:       699.15 cm**-1
  32:       741.38 cm**-1
  33:       806.84 cm**-1
  34:       913.06 cm**-1
  35:       930.85 cm**-1
  36:       943.39 cm**-1
  37:       943.55 cm**-1
  38:       970.14 cm**-1
  39:       970.76 cm**-1
  40:       981.60 cm**-1
  41:      1066.26 cm**-1
  42:      1081.16 cm**-1
  43:      1085.50 cm**-1
  44:      1103.01 cm**-1
  45:      1149.85 cm**-1
  46:      1151.45 cm**-1
  47:      1173.26 cm**-1
  48:      1173.88 cm**-1
  49:      1186.89 cm**-1
  50:      1223.31 cm**-1
  51:      1228.00 cm**-1
  52:      1340.82 cm**-1
  53:      1369.41 cm**-1
  54:      1369.49 cm**-1
  55:      1373.50 cm**-1
  56:      1407.03 cm**-1
  57:      1407.14 cm**-1
  58:      1408.98 cm**-1
  59:      1410.32 cm**-1
  60:      1414.07 cm**-1
  61:      1414.64 cm**-1
  62:      1436.75 cm**-1
  63:      1437.41 cm**-1
  64:      1461.81 cm**-1
  65:      1471.62 cm**-1
  66:      1473.03 cm**-1
  67:      1473.70 cm**-1
  68:      1475.77 cm**-1
  69:      1475.87 cm**-1
  70:      1481.94 cm**-1
  71:      1481.96 cm**-1
  72:      1486.42 cm**-1
  73:      1487.57 cm**-1
  74:      1491.05 cm**-1
  75:      1492.10 cm**-1
  76:      1502.88 cm**-1
  77:      1505.70 cm**-1
  78:      1737.33 cm**-1
  79:      3063.25 cm**-1
  80:      3064.33 cm**-1
  81:      3064.37 cm**-1
  82:      3065.74 cm**-1
  83:      3067.61 cm**-1
  84:      3067.68 cm**-1
  85:      3122.58 cm**-1
  86:      3122.71 cm**-1
  87:      3125.96 cm**-1
  88:      3126.18 cm**-1
  89:      3145.80 cm**-1
  90:      3145.83 cm**-1
  91:      3148.01 cm**-1
  92:      3148.03 cm**-1
  93:      3148.58 cm**-1
  94:      3148.65 cm**-1
  95:      3155.93 cm**-1
  96:      3156.44 cm**-1
  97:      3159.83 cm**-1
  98:      3167.87 cm**-1

IR SPECTRUM
-----------

 Mode   freq       eps      Int      T**2         TX        TY        TZ
       cm**-1   L/(mol*cm) km/mol    a.u.
----------------------------------------------------------------------------
  6:     29.95   0.000895    4.52  0.009327  ( 0.096575 -0.000001 -0.000001)
  7:     47.32   0.000000    0.00  0.000000  (-0.000003 -0.000000  0.000000)
  8:     89.32   0.001215    6.14  0.004245  ( 0.065150  0.000000 -0.000000)
  9:    111.66   0.000000    0.00  0.000000  (-0.000000  0.000001 -0.000000)
 10:    155.39   0.000587    2.97  0.001180  (-0.000000  0.000000 -0.034347)
 11:    213.68   0.000000    0.00  0.000000  (-0.000002 -0.000000  0.000000)
 12:    219.13   0.000069    0.35  0.000099  (-0.009929  0.000001  0.000000)
 13:    232.15   0.000000    0.00  0.000000  ( 0.000001  0.000016  0.000000)
 14:    232.50   0.000790    3.99  0.001061  ( 0.000000  0.032570 -0.000000)
 15:    259.56   0.000002    0.01  0.000002  ( 0.001375  0.000000 -0.000000)
 16:    260.74   0.000000    0.00  0.000000  ( 0.000001  0.000000 -0.000000)
 17:    276.43   0.000214    1.08  0.000242  (-0.015551  0.000000  0.000000)
 18:    280.04   0.000092    0.47  0.000103  ( 0.000000  0.010135 -0.000001)
 19:    284.40   0.000044    0.22  0.000049  (-0.000000  0.000001  0.006978)
 20:    290.10   0.000113    0.57  0.000122  ( 0.000000 -0.000000  0.011045)
 21:    325.51   0.000115    0.58  0.000110  (-0.000000 -0.000003  0.010485)
 22:    326.28   0.000363    1.84  0.000347  ( 0.000000 -0.018637 -0.000002)
 23:    405.02   0.003601   18.20  0.002774  (-0.052672  0.000000  0.000000)
 24:    422.81   0.000089    0.45  0.000066  (-0.000000 -0.008098  0.000000)
 25:    477.37   0.000066    0.34  0.000043  ( 0.000000  0.000000 -0.006587)
 26:    491.84   0.000000    0.00  0.000000  ( 0.000000 -0.000001  0.000000)
 27:    549.50   0.000678    3.43  0.000385  (-0.000000 -0.019624 -0.000000)
 28:    615.14   0.001491    7.54  0.000757  (-0.000000 -0.000000  0.027507)
 29:    635.04   0.000169    0.86  0.000083  ( 0.000000  0.009120  0.000000)
 30:    679.11   0.000143    0.72  0.000066  (-0.008101  0.000001  0.000000)
 31:    699.15   0.000000    0.00  0.000000  (-0.000001 -0.000000 -0.000000)
 32:    741.38   0.001091    5.51  0.000459  (-0.000000  0.000000 -0.021432)
 33:    806.84   0.001066    5.38  0.000412  ( 0.000000  0.020301 -0.000000)
 34:    913.06   0.000181    0.92  0.000062  ( 0.000000  0.000000 -0.007875)
 35:    930.85   0.002217   11.20  0.000743  ( 0.000000 -0.027260 -0.000000)
 36:    943.39   0.000000    0.00  0.000000  ( 0.000030 -0.000000 -0.000000)
 37:    943.55   0.000779    3.94  0.000258  (-0.016052 -0.000000 -0.000000)
 38:    970.14   0.000000    0.00  0.000000  ( 0.000001 -0.000000 -0.000000)
 39:    970.76   0.000050    0.25  0.000016  (-0.004019 -0.000000  0.000000)
 40:    981.60   0.000737    3.73  0.000234  ( 0.000000 -0.000000  0.015308)
 41:   1066.26   0.000359    1.82  0.000105  ( 0.010255 -0.000000  0.000000)
 42:   1081.16   0.001016    5.14  0.000293  ( 0.000000  0.017127 -0.000000)
 43:   1085.50   0.000000    0.00  0.000000  ( 0.000000  0.000000  0.000000)
 44:   1103.01   0.001098    5.55  0.000311  ( 0.000000 -0.000000 -0.017627)
 45:   1149.85   0.016493   83.35  0.004476  (-0.000000  0.066904  0.000001)
 46:   1151.45   0.000565    2.86  0.000153  (-0.000000  0.000004 -0.012377)
 47:   1173.26   0.000000    0.00  0.000000  (-0.000004 -0.000000 -0.000000)
 48:   1173.88   0.004330   21.88  0.001151  ( 0.033926  0.000000 -0.000000)
 49:   1186.89   0.000347    1.75  0.000091  ( 0.000000 -0.009545  0.000000)
 50:   1223.31   0.000547    2.76  0.000139  (-0.000000  0.000000 -0.011808)
 51:   1228.00   0.001840    9.30  0.000468  ( 0.000000 -0.021625  0.000000)
 52:   1340.82   0.002459   12.43  0.000572  (-0.000000  0.000000 -0.023921)
 53:   1369.41   0.000000    0.00  0.000000  ( 0.000003  0.000001  0.000000)
 54:   1369.49   0.000125    0.63  0.000028  ( 0.005329  0.000000 -0.000001)
 55:   1373.50   0.013323   67.33  0.003027  (-0.000000  0.055019  0.000000)
 56:   1407.03   0.000000    0.00  0.000000  ( 0.000034 -0.000002  0.000001)
 57:   1407.14   0.007892   39.88  0.001750  ( 0.041835 -0.000000  0.000000)
 58:   1408.98   0.004475   22.61  0.000991  (-0.000000 -0.000012  0.031482)
 59:   1410.32   0.021202  107.14  0.004691  ( 0.000001  0.068493  0.000006)
 60:   1414.07   0.002594   13.11  0.000572  ( 0.000000  0.000008  0.023924)
 61:   1414.64   0.008495   42.93  0.001874  ( 0.000001 -0.043289  0.000005)
 62:   1436.75   0.006908   34.91  0.001500  ( 0.000000  0.038734 -0.000004)
 63:   1437.41   0.004155   21.00  0.000902  ( 0.000000  0.000005  0.030034)
 64:   1461.81   0.000640    3.24  0.000137  (-0.000001 -0.011691 -0.000000)
 65:   1471.62   0.007869   39.77  0.001669  (-0.000003  0.000000 -0.040849)
 66:   1473.03   0.006653   33.62  0.001409  (-0.037542 -0.000000  0.000002)
 67:   1473.70   0.000000    0.00  0.000000  ( 0.000014  0.000000  0.000000)
 68:   1475.77   0.000106    0.54  0.000022  (-0.004741  0.000000  0.000001)
 69:   1475.87   0.000000    0.00  0.000000  (-0.000014 -0.000000  0.000000)
 70:   1481.94   0.000000    0.00  0.000000  ( 0.000048  0.000000 -0.000000)
 71:   1481.96   0.000487    2.46  0.000103  (-0.010125  0.000000  0.000000)
 72:   1486.42   0.001475    7.45  0.000310  ( 0.000000 -0.017596  0.000003)
 73:   1487.57   0.000582    2.94  0.000122  ( 0.000001 -0.000004 -0.011052)
 74:   1491.05   0.000206    1.04  0.000043  (-0.000000 -0.006560 -0.000006)
 75:   1492.10   0.004326   21.86  0.000905  ( 0.000000 -0.000001  0.030081)
 76:   1502.88   0.001205    6.09  0.000250  (-0.000000  0.015817  0.000001)
 77:   1505.70   0.001084    5.48  0.000225  ( 0.000000 -0.000000 -0.014987)
 78:   1737.33   0.000745    3.76  0.000134  ( 0.000000 -0.000000  0.011565)
 79:   3063.25   0.011807   59.67  0.001203  ( 0.000000  0.034681 -0.000000)
 80:   3064.33   0.015040   76.01  0.001532  ( 0.039136 -0.000000  0.000000)
 81:   3064.37   0.000000    0.00  0.000000  ( 0.000058  0.000001  0.000000)
 82:   3065.74   0.003398   17.17  0.000346  ( 0.000000 -0.000000  0.018599)
 83:   3067.61   0.001477    7.46  0.000150  (-0.000000  0.012256 -0.000011)
 84:   3067.68   0.004622   23.36  0.000470  (-0.000001  0.000007  0.021684)
 85:   3122.58   0.000702    3.55  0.000070  (-0.000000  0.008376 -0.000017)
 86:   3122.71   0.000289    1.46  0.000029  ( 0.000000 -0.000026 -0.005370)
 87:   3125.96   0.008316   42.02  0.000830  ( 0.028812 -0.000000 -0.000001)
 88:   3126.18   0.000000    0.00  0.000000  (-0.000010 -0.000000 -0.000000)
 89:   3145.80   0.010336   52.23  0.001025  (-0.032021  0.000001  0.000002)
 90:   3145.83   0.000002    0.01  0.000000  (-0.000416  0.000004  0.000002)
 91:   3148.01   0.011408   57.65  0.001131  ( 0.000001  0.033626 -0.000359)
 92:   3148.03   0.012758   64.47  0.001265  ( 0.000005  0.000340  0.035560)
 93:   3148.58   0.000691    3.49  0.000068  ( 0.008275 -0.000001 -0.000010)
 94:   3148.65   0.000000    0.00  0.000000  ( 0.000004  0.000006 -0.000000)
 95:   3155.93   0.018098   91.46  0.001790  ( 0.000000  0.042303 -0.000001)
 96:   3156.44   0.011576   58.50  0.001144  ( 0.000000 -0.000002 -0.033830)
 97:   3159.83   0.009041   45.69  0.000893  (-0.000000  0.029882  0.000001)
 98:   3167.87   0.004027   20.35  0.000397  ( 0.000000 -0.000001  0.019917)

--------------------------
THERMOCHEMISTRY AT 298.15K
--------------------------

Temperature         ... 298.15 K
Pressure            ... 1.00 atm
Total Mass          ... 180.29 AMU

Throughout the following assumptions are being made:
  (1) The electronic state is orbitally nondegenerate
  (2) There are no thermally accessible electronically excited states
  (3) Hindered rotations indicated by low frequency modes are not
      treated as such but are treated as vibrations and this may
      cause some error
  (4) All equations used are the standard statistical mechanics
      equations for an ideal gas
  (5) All vibrations are strictly harmonic

freq.      29.95  E(vib)   ...       0.55
freq.      47.32  E(vib)   ...       0.53
freq.      89.32  E(vib)   ...       0.47
freq.     111.66  E(vib)   ...       0.45
freq.     155.39  E(vib)   ...       0.40
freq.     213.68  E(vib)   ...       0.34
freq.     219.13  E(vib)   ...       0.33
freq.     232.15  E(vib)   ...       0.32
freq.     232.50  E(vib)   ...       0.32
freq.     259.56  E(vib)   ...       0.30
freq.     260.74  E(vib)   ...       0.30
freq.     276.43  E(vib)   ...       0.28
freq.     280.04  E(vib)   ...       0.28
freq.     284.40  E(vib)   ...       0.28
freq.     290.10  E(vib)   ...       0.27
freq.     325.51  E(vib)   ...       0.24
freq.     326.28  E(vib)   ...       0.24
freq.     405.02  E(vib)   ...       0.19
freq.     422.81  E(vib)   ...       0.18
freq.     477.37  E(vib)   ...       0.15
freq.     491.84  E(vib)   ...       0.14
freq.     549.50  E(vib)   ...       0.12
freq.     615.14  E(vib)   ...       0.10
freq.     635.04  E(vib)   ...       0.09
freq.     679.11  E(vib)   ...       0.08
freq.     699.15  E(vib)   ...       0.07
freq.     741.38  E(vib)   ...       0.06
freq.     806.84  E(vib)   ...       0.05
freq.     913.06  E(vib)   ...       0.03
freq.     930.85  E(vib)   ...       0.03
freq.     943.39  E(vib)   ...       0.03
freq.     943.55  E(vib)   ...       0.03
freq.     970.14  E(vib)   ...       0.03
freq.     970.76  E(vib)   ...       0.03
freq.     981.60  E(vib)   ...       0.02
freq.    1066.26  E(vib)   ...       0.02
freq.    1081.16  E(vib)   ...       0.02
freq.    1085.50  E(vib)   ...       0.02
freq.    1103.01  E(vib)   ...       0.02
freq.    1149.85  E(vib)   ...       0.01
freq.    1151.45  E(vib)   ...       0.01
freq.    1173.26  E(vib)   ...       0.01
freq.    1173.88  E(vib)   ...       0.01
freq.    1186.89  E(vib)   ...       0.01
freq.    1223.31  E(vib)   ...       0.01
freq.    1228.00  E(vib)   ...       0.01
freq.    1340.82  E(vib)   ...       0.01
freq.    1369.41  E(vib)   ...       0.01
freq.    1369.49  E(vib)   ...       0.01
freq.    1373.50  E(vib)   ...       0.01
freq.    1407.03  E(vib)   ...       0.00
freq.    1407.14  E(vib)   ...       0.00
freq.    1408.98  E(vib)   ...       0.00
freq.    1410.32  E(vib)   ...       0.00
freq.    1414.07  E(vib)   ...       0.00
freq.    1414.64  E(vib)   ...       0.00
freq.    1436.75  E(vib)   ...       0.00
freq.    1437.41  E(vib)   ...       0.00
freq.    1461.81  E(vib)   ...       0.00
freq.    1471.62  E(vib)   ...       0.00
freq.    1473.03  E(vib)   ...       0.00
freq.    1473.70  E(vib)   ...       0.00
freq.    1475.77  E(vib)   ...       0.00
freq.    1475.87  E(vib)   ...       0.00
freq.    1481.94  E(vib)   ...       0.00
freq.    1481.96  E(vib)   ...       0.00
freq.    1486.42  E(vib)   ...       0.00
freq.    1487.57  E(vib)   ...       0.00
freq.    1491.05  E(vib)   ...       0.00
freq.    1492.10  E(vib)   ...       0.00
freq.    1502.88  E(vib)   ...       0.00
freq.    1505.70  E(vib)   ...       0.00
freq.    1737.33  E(vib)   ...       0.00
freq.    3063.25  E(vib)   ...       0.00
freq.    3064.33  E(vib)   ...       0.00
freq.    3064.37  E(vib)   ...       0.00
freq.    3065.74  E(vib)   ...       0.00
freq.    3067.61  E(vib)   ...       0.00
freq.    3067.68  E(vib)   ...       0.00
freq.    3122.58  E(vib)   ...       0.00
freq.    3122.71  E(vib)   ...       0.00
freq.    3125.96  E(vib)   ...       0.00
freq.    3126.18  E(vib)   ...       0.00
freq.    3145.80  E(vib)   ...       0.00
freq.    3145.83  E(vib)   ...       0.00
freq.    3148.01  E(vib)   ...       0.00
freq.    3148.03  E(vib)   ...       0.00
freq.    3148.58  E(vib)   ...       0.00
freq.    3148.65  E(vib)   ...       0.00
freq.    3155.93  E(vib)   ...       0.00
freq.    3156.44  E(vib)   ...       0.00
freq.    3159.83  E(vib)   ...       0.00
freq.    3167.87  E(vib)   ...       0.00

------------
INNER ENERGY
------------

The inner energy is: U= E(el) + E(ZPE) + E(vib) + E(rot) + E(trans)
    E(el)   - is the total energy from the electronic structure calculation
              = E(kin-el) + E(nuc-el) + E(el-el) + E(nuc-nuc)
    E(ZPE)  - the the zero temperature vibrational energy from the frequency calculation
    E(vib)  - the the finite temperature correction to E(ZPE) due to population
              of excited vibrational states
    E(rot)  - is the rotational thermal energy
    E(trans)- is the translational thermal energy

Summary of contributions to the inner energy U:
Electronic energy                ...   -540.77148103 Eh
Zero point energy                ...      0.29875196 Eh     187.47 kcal/mol
Thermal vibrational correction   ...      0.01207285 Eh       7.58 kcal/mol
Thermal rotational correction    ...      0.00141627 Eh       0.89 kcal/mol
Thermal translational correction ...      0.00141627 Eh       0.89 kcal/mol
-----------------------------------------------------------------------
Total thermal energy                   -540.45782368 Eh

Summary of corrections to the electronic energy:
(perhaps to be used in another calculation)
Total thermal correction                  0.01490539 Eh       9.35 kcal/mol
Non-thermal (ZPE) correction              0.29875196 Eh     187.47 kcal/mol
-----------------------------------------------------------------------
Total correction                          0.31365735 Eh     196.82 kcal/mol

--------
ENTHALPY
--------

The enthalpy is H = U + kB*T
                kB is Boltzmann's constant
Total free energy                 ...   -540.45782368 Eh
Thermal Enthalpy correction       ...      0.00094421 Eh       0.59 kcal/mol
-----------------------------------------------------------------------
Total Enthalpy                    ...   -540.45687947 Eh

Note: Rotational entropy computed according to Herzberg
Infrared and Raman Spectra, Chapter V,1, Van Nostrand Reinhold, 1945
Point Group:  C2v, Symmetry Number:   2
Rotational constants in cm-1:     0.036079     0.019181     0.015019

Vibrational entropy computed according to the QRRHO of S. Grimme
Chem.Eur.J. 2012 18 9955

                             ****ORCA TERMINATED NORMALLY****
TOTAL RUN TIME: 0 days 1 hours 25 minutes 15 seconds 585 msec
