                         Program Version 5.0.4 -  RELEASE  -
|  1> # ORCA 5.0.4 - /users/bwb16179/postgrad/2024_06/pKa_Reviewer_Comments/Aq_Z=0/7_deprot.inp # write input file
|  2> # Basic Mode
|  3> #
|  4> ! Opt Freq wB97X Def2-TZVP D4 SlowConv TightSCF Defgrid2 Def2/J RIJCOSX CPCM(Water)
|  5>
|  6> %PAL NPROCS 4 END
|  7>
|  8> %maxcore 4500
|  9>
| 10> %geom
| 11> Maxiter 150
| 12> END
| 13>
| 14> * xyzfile 0 1 7_deprot.xyz
| 15>
| 16>                          ****END OF INPUT****
 Total Charge           Charge          ....    0
 Multiplicity           Mult            ....    1
 Number of Electrons    NEL             ....  116
Dispersion correction           -0.005806596
FINAL SINGLE POINT ENERGY      -688.348717864810
Dispersion correction            ... Starting D4
Dispersion correction           -0.005825545
FINAL SINGLE POINT ENERGY      -688.350401069630
Dispersion correction            ... Starting D4
Dispersion correction           -0.005826799
FINAL SINGLE POINT ENERGY      -688.350513534670
Dispersion correction            ... Starting D4
FINAL SINGLE POINT ENERGY      -688.350669295556
FINAL SINGLE POINT ENERGY      -688.350768342759
Dispersion correction           -0.005825219
FINAL SINGLE POINT ENERGY      -688.350812888678
Dispersion correction            ... Starting D4
Dispersion correction           -0.005824928
FINAL SINGLE POINT ENERGY      -688.350818856471
Dispersion correction            ... Starting D4
                    ***********************HURRAY********************

CARTESIAN COORDINATES (ANGSTROEM)
---------------------------------
  C     -0.003788    0.670974   -1.814592
  C      0.003758   -0.670973   -1.814593
  H     -0.019620    1.373055   -2.631289
  H      0.019589   -1.373052   -2.631291
  C     -0.026864    2.415764   -0.048787
  C     -0.776834    2.778072    1.061857
  C      0.706755    3.369542   -0.740890
  C     -0.780555    4.098107    1.484732
  H     -1.352507    2.025332    1.584680
  C      0.687238    4.690876   -0.318194
  H      1.303762    3.080479   -1.597862
  C     -0.053069    5.059308    0.795929
  H     -1.366135    4.377608    2.352650
  H      1.263156    5.431830   -0.859869
  H     -0.063633    6.091036    1.126464
  C      0.026852   -2.415763   -0.048787
  C      0.776819   -2.778062    1.061863
  C     -0.706746   -3.369552   -0.740896
  C      0.780557   -4.098097    1.484736
  H      1.352476   -2.025313    1.584692
  C     -0.687211   -4.690887   -0.318203
  H     -1.303751   -3.080498   -1.597872
  C      0.053095   -5.059309    0.795925
  H      1.366134   -4.377590    2.352658
  H     -1.263112   -5.431850   -0.859884
  H      0.063673   -6.091038    1.126457
  C     -0.000012   -0.000000    0.368501
  N     -0.011297    1.058517   -0.480628
  N      0.011274   -1.058517   -0.480629

 Multiplicity           Mult            ....    1
 Number of Electrons    NEL             ....  116
 Basis Dimension        Dim             ....  599

ORBITAL ENERGIES
----------------

  NO   OCC          E(Eh)            E(eV)
   0   2.0000     -14.457871      -393.4187
   1   2.0000     -14.457843      -393.4179
   2   2.0000     -10.310464      -280.5620
   3   2.0000     -10.310456      -280.5618
   4   2.0000     -10.291061      -280.0340
   5   2.0000     -10.290262      -280.0123
   6   2.0000     -10.282819      -279.8097
   7   2.0000     -10.266828      -279.3746
   8   2.0000     -10.266828      -279.3746
   9   2.0000     -10.265541      -279.3396
  10   2.0000     -10.265541      -279.3396
  11   2.0000     -10.265203      -279.3304
  12   2.0000     -10.265202      -279.3304
  13   2.0000     -10.264545      -279.3125
  14   2.0000     -10.264545      -279.3125
  15   2.0000     -10.261609      -279.2326
  16   2.0000     -10.261609      -279.2326
  17   2.0000      -1.176743       -32.0208
  18   2.0000      -1.076200       -29.2849
  19   2.0000      -1.005843       -27.3704
  20   2.0000      -0.987460       -26.8701
  21   2.0000      -0.919164       -25.0117
  22   2.0000      -0.891900       -24.2698
  23   2.0000      -0.887855       -24.1598
  24   2.0000      -0.875529       -23.8244
  25   2.0000      -0.869257       -23.6537
  26   2.0000      -0.786636       -21.4055
  27   2.0000      -0.764176       -20.7943
  28   2.0000      -0.738302       -20.0902
  29   2.0000      -0.731900       -19.9160
  30   2.0000      -0.703392       -19.1403
  31   2.0000      -0.691115       -18.8062
  32   2.0000      -0.665717       -18.1151
  33   2.0000      -0.643461       -17.5095
  34   2.0000      -0.613338       -16.6898
  35   2.0000      -0.597009       -16.2455
  36   2.0000      -0.587569       -15.9886
  37   2.0000      -0.578153       -15.7323
  38   2.0000      -0.566530       -15.4161
  39   2.0000      -0.566146       -15.4056
  40   2.0000      -0.546139       -14.8612
  41   2.0000      -0.540009       -14.6944
  42   2.0000      -0.537148       -14.6165
  43   2.0000      -0.534753       -14.5514
  44   2.0000      -0.532513       -14.4904
  45   2.0000      -0.506409       -13.7801
  46   2.0000      -0.492543       -13.4028
  47   2.0000      -0.469484       -12.7753
  48   2.0000      -0.464111       -12.6291
  49   2.0000      -0.458158       -12.4671
  50   2.0000      -0.451477       -12.2853
  51   2.0000      -0.430804       -11.7228
  52   2.0000      -0.368624       -10.0308
  53   2.0000      -0.360791        -9.8176
  54   2.0000      -0.358320        -9.7504
  55   2.0000      -0.342169        -9.3109
  56   2.0000      -0.330302        -8.9880
  57   2.0000      -0.329942        -8.9782
  58   0.0000       0.047951         1.3048
  59   0.0000       0.057605         1.5675
  60   0.0000       0.059795         1.6271
  61   0.0000       0.061475         1.6728
  62   0.0000       0.111969         3.0468

MULLIKEN ATOMIC CHARGES
-----------------------
   0 C :   -0.155622
   1 C :   -0.155552
   2 H :    0.226192
   3 H :    0.226223
   4 C :    0.236633
   5 C :   -0.297829
   6 C :   -0.308576
   7 C :   -0.106416
   8 H :    0.161181
   9 C :   -0.119711
  10 H :    0.183748
  11 C :   -0.185215
  12 H :    0.167762
  13 H :    0.167925
  14 H :    0.166574
  15 C :    0.236472
  16 C :   -0.297507
  17 C :   -0.308580
  18 C :   -0.106713
  19 H :    0.161217
  20 C :   -0.119697
  21 H :    0.183732
  22 C :   -0.185075
  23 H :    0.167701
  24 H :    0.167932
  25 H :    0.166582
  26 C :   -0.254733
  27 N :   -0.009329
  28 N :   -0.009319
Sum of atomic charges:   -0.0000000

LOEWDIN ATOMIC CHARGES
----------------------
   0 C :   -0.193113
   1 C :   -0.193109
   2 H :    0.155218
   3 H :    0.155218
   4 C :   -0.164937
   5 C :   -0.113971
   6 C :   -0.112943
   7 C :   -0.138193
   8 H :    0.155290
   9 C :   -0.138303
  10 H :    0.159672
  11 C :   -0.147619
  12 H :    0.154786
  13 H :    0.154943
  14 H :    0.152829
  15 C :   -0.164937
  16 C :   -0.113970
  17 C :   -0.112943
  18 C :   -0.138194
  19 H :    0.155290
  20 C :   -0.138303
  21 H :    0.159672
  22 C :   -0.147619
  23 H :    0.154785
  24 H :    0.154943
  25 H :    0.152829
  26 C :   -0.347416
  27 N :    0.250047
  28 N :    0.250047

  Mayer bond orders larger than 0.100000
B(  0-C ,  1-C ) :   1.7829 B(  0-C ,  2-H ) :   0.9240 B(  0-C , 27-N ) :   1.0850
B(  1-C ,  3-H ) :   0.9239 B(  1-C , 28-N ) :   1.0850 B(  4-C ,  5-C ) :   1.3773
B(  4-C ,  6-C ) :   1.3729 B(  4-C , 27-N ) :   0.9569 B(  5-C ,  7-C ) :   1.4413
B(  5-C ,  8-H ) :   0.9674 B(  6-C ,  9-C ) :   1.4431 B(  6-C , 10-H ) :   0.9597
B(  7-C , 11-C ) :   1.3892 B(  7-C , 12-H ) :   0.9772 B(  9-C , 11-C ) :   1.3976
B(  9-C , 13-H ) :   0.9770 B( 11-C , 14-H ) :   0.9767 B( 15-C , 16-C ) :   1.3775
B( 15-C , 17-C ) :   1.3729 B( 15-C , 28-N ) :   0.9568 B( 16-C , 18-C ) :   1.4412
B( 16-C , 19-H ) :   0.9673 B( 17-C , 20-C ) :   1.4432 B( 17-C , 21-H ) :   0.9598
B( 18-C , 22-C ) :   1.3890 B( 18-C , 23-H ) :   0.9774 B( 20-C , 22-C ) :   1.3976
B( 20-C , 24-H ) :   0.9769 B( 22-C , 25-H ) :   0.9767 B( 26-C , 27-N ) :   1.1806
B( 26-C , 28-N ) :   1.1805

Dispersion correction           -0.005825015
FINAL SINGLE POINT ENERGY      -688.350818686806

DIPOLE MOMENT
-------------
                                X             Y             Z
Electronic contribution:     -0.00005       0.00001      -1.42551
Nuclear contribution   :      0.00005       0.00000      -0.10387
                        -----------------------------------------
Total Dipole Moment    :      0.00000       0.00001      -1.52938
                        -----------------------------------------
Magnitude (a.u.)       :      1.52938
Magnitude (Debye)      :      3.88737

Dispersion correction in the Hessian             ... Starting D4

VIBRATIONAL FREQUENCIES
-----------------------

Scaling factor for frequencies =  1.000000000  (already applied!)

   0:         0.00 cm**-1
   1:         0.00 cm**-1
   2:         0.00 cm**-1
   3:         0.00 cm**-1
   4:         0.00 cm**-1
   5:         0.00 cm**-1
   6:        41.21 cm**-1
   7:        50.32 cm**-1
   8:        75.96 cm**-1
   9:        88.87 cm**-1
  10:       135.68 cm**-1
  11:       164.65 cm**-1
  12:       255.02 cm**-1
  13:       304.84 cm**-1
  14:       308.68 cm**-1
  15:       417.52 cm**-1
  16:       428.77 cm**-1
  17:       430.89 cm**-1
  18:       433.35 cm**-1
  19:       478.13 cm**-1
  20:       542.27 cm**-1
  21:       578.31 cm**-1
  22:       629.23 cm**-1
  23:       631.08 cm**-1
  24:       661.98 cm**-1
  25:       663.74 cm**-1
  26:       694.09 cm**-1
  27:       727.29 cm**-1
  28:       727.60 cm**-1
  29:       728.08 cm**-1
  30:       758.18 cm**-1
  31:       804.54 cm**-1
  32:       807.16 cm**-1
  33:       879.37 cm**-1
  34:       879.44 cm**-1
  35:       892.49 cm**-1
  36:       965.81 cm**-1
  37:       966.06 cm**-1
  38:       970.66 cm**-1
  39:       978.69 cm**-1
  40:      1025.37 cm**-1
  41:      1025.41 cm**-1
  42:      1028.75 cm**-1
  43:      1029.10 cm**-1
  44:      1046.80 cm**-1
  45:      1046.83 cm**-1
  46:      1061.40 cm**-1
  47:      1063.22 cm**-1
  48:      1105.68 cm**-1
  49:      1108.03 cm**-1
  50:      1115.60 cm**-1
  51:      1121.65 cm**-1
  52:      1138.87 cm**-1
  53:      1174.06 cm**-1
  54:      1174.30 cm**-1
  55:      1199.58 cm**-1
  56:      1199.90 cm**-1
  57:      1281.88 cm**-1
  58:      1297.21 cm**-1
  59:      1307.36 cm**-1
  60:      1321.73 cm**-1
  61:      1341.04 cm**-1
  62:      1366.96 cm**-1
  63:      1382.83 cm**-1
  64:      1427.83 cm**-1
  65:      1457.96 cm**-1
  66:      1508.04 cm**-1
  67:      1510.40 cm**-1
  68:      1554.89 cm**-1
  69:      1561.36 cm**-1
  70:      1644.61 cm**-1
  71:      1677.01 cm**-1
  72:      1681.76 cm**-1
  73:      1687.62 cm**-1
  74:      1690.92 cm**-1
  75:      3207.25 cm**-1
  76:      3207.28 cm**-1
  77:      3214.43 cm**-1
  78:      3214.45 cm**-1
  79:      3222.71 cm**-1
  80:      3222.74 cm**-1
  81:      3231.10 cm**-1
  82:      3231.16 cm**-1
  83:      3239.55 cm**-1
  84:      3239.63 cm**-1
  85:      3294.16 cm**-1
  86:      3314.00 cm**-1

IR SPECTRUM
-----------

 Mode   freq       eps      Int      T**2         TX        TY        TZ
       cm**-1   L/(mol*cm) km/mol    a.u.
----------------------------------------------------------------------------
  6:     41.21   0.000099    0.50  0.000747  (-0.011719 -0.024685 -0.000001)
  7:     50.32   0.000002    0.01  0.000012  (-0.000005  0.000003  0.003459)
  8:     75.96   0.000123    0.62  0.000503  ( 0.000005 -0.000003  0.022439)
  9:     88.87   0.004653   23.52  0.016340  ( 0.116711 -0.052136 -0.000001)
 10:    135.68   0.000005    0.02  0.000011  ( 0.000000 -0.000001  0.003253)
 11:    164.65   0.000619    3.13  0.001173  ( 0.009282  0.032963  0.000000)
 12:    255.02   0.000042    0.21  0.000052  (-0.000001  0.000000 -0.007190)
 13:    304.84   0.001673    8.46  0.001713  ( 0.022859 -0.034499 -0.000001)
 14:    308.68   0.000062    0.31  0.000063  ( 0.000003 -0.000005  0.007935)
 15:    417.52   0.000019    0.10  0.000014  (-0.000894 -0.003684 -0.000000)
 16:    428.77   0.000027    0.14  0.000020  (-0.000001  0.000001 -0.004470)
 17:    430.89   0.000150    0.76  0.000109  (-0.003166  0.009946 -0.000001)
 18:    433.35   0.000014    0.07  0.000010  ( 0.000000 -0.000001 -0.003158)
 19:    478.13   0.001467    7.41  0.000958  (-0.010892  0.028965  0.000000)
 20:    542.27   0.003008   15.20  0.001731  (-0.000001 -0.000000  0.041603)
 21:    578.31   0.004776   24.14  0.002577  (-0.045952 -0.021582 -0.000002)
 22:    629.23   0.000346    1.75  0.000172  ( 0.002242  0.012905  0.000001)
 23:    631.08   0.000230    1.16  0.000114  ( 0.000000  0.000001 -0.010656)
 24:    661.98   0.001044    5.28  0.000492  (-0.012867  0.018073  0.000003)
 25:    663.74   0.001010    5.10  0.000475  (-0.000001  0.000002 -0.021787)
 26:    694.09   0.000502    2.54  0.000226  ( 0.000000  0.000000  0.015020)
 27:    727.29   0.010170   51.39  0.004364  ( 0.000259 -0.000013 -0.066058)
 28:    727.60   0.022221  112.30  0.009530  (-0.097601 -0.002116 -0.000178)
 29:    728.08   0.010620   53.67  0.004552  (-0.000166 -0.067469  0.000020)
 30:    758.18   0.021960  110.98  0.009039  (-0.095038  0.002543  0.000000)
 31:    804.54   0.009364   47.32  0.003632  ( 0.000029 -0.000010 -0.060266)
 32:    807.16   0.019653   99.32  0.007598  (-0.080603  0.033186 -0.000020)
 33:    879.37   0.000003    0.02  0.000001  ( 0.000008 -0.000000  0.001034)
 34:    879.44   0.000072    0.36  0.000026  ( 0.005053  0.000136 -0.000001)
 35:    892.49   0.000025    0.12  0.000009  (-0.000000 -0.000000 -0.002928)
 36:    965.81   0.000942    4.76  0.000305  (-0.000104  0.000108  0.017450)
 37:    966.06   0.003941   19.92  0.001273  ( 0.024321 -0.026108  0.000075)
 38:    970.66   0.006299   31.83  0.002025  (-0.008029 -0.044278 -0.000001)
 39:    978.69   0.000791    4.00  0.000252  ( 0.000001  0.000000  0.015883)
 40:   1025.37   0.000147    0.75  0.000045  (-0.000012 -0.000010  0.006699)
 41:   1025.41   0.000011    0.06  0.000003  ( 0.001444  0.001182  0.000059)
 42:   1028.75   0.000070    0.36  0.000021  (-0.001106  0.004486 -0.000000)
 43:   1029.10   0.000000    0.00  0.000000  (-0.000001  0.000004 -0.000361)
 44:   1046.80   0.000072    0.36  0.000021  ( 0.004114 -0.002135 -0.000091)
 45:   1046.83   0.000020    0.10  0.000006  ( 0.000152 -0.000078  0.002454)
 46:   1061.40   0.000360    1.82  0.000106  ( 0.000000  0.000001  0.010288)
 47:   1063.22   0.002481   12.54  0.000728  ( 0.002118 -0.026901  0.000000)
 48:   1105.68   0.001065    5.38  0.000301  (-0.000002 -0.000005  0.017341)
 49:   1108.03   0.004691   23.71  0.001321  (-0.020294 -0.030157 -0.000004)
 50:   1115.60   0.004641   23.45  0.001298  (-0.000000 -0.000001  0.036029)
 51:   1121.65   0.001985   10.03  0.000552  ( 0.015958 -0.017249 -0.000002)
 52:   1138.87   0.001883    9.51  0.000516  (-0.000000  0.000000  0.022713)
 53:   1174.06   0.000030    0.15  0.000008  (-0.000000 -0.000004 -0.002811)
 54:   1174.30   0.000073    0.37  0.000019  ( 0.000427  0.004369 -0.000002)
 55:   1199.58   0.000132    0.66  0.000034  ( 0.000000 -0.000001  0.005850)
 56:   1199.90   0.000261    1.32  0.000068  (-0.002466  0.007868  0.000001)
 57:   1281.88   0.000119    0.60  0.000029  ( 0.001697 -0.005098  0.000000)
 58:   1297.21   0.000574    2.90  0.000138  ( 0.000000 -0.000001 -0.011750)
 59:   1307.36   0.025378  128.25  0.006058  (-0.002775  0.077781  0.000000)
 60:   1321.73   0.006741   34.07  0.001592  (-0.005773 -0.039474 -0.000000)
 61:   1341.04   0.002045   10.33  0.000476  (-0.000000 -0.000001  0.021815)
 62:   1366.96   0.003390   17.13  0.000774  ( 0.002802  0.027678 -0.000000)
 63:   1382.83   0.002264   11.44  0.000511  (-0.000000  0.000000 -0.022603)
 64:   1427.83   0.000113    0.57  0.000025  ( 0.000000 -0.000001  0.004970)
 65:   1457.96   0.038609  195.11  0.008264  (-0.000463  0.090905 -0.000000)
 66:   1508.04   0.001315    6.64  0.000272  ( 0.013711 -0.009171  0.000000)
 67:   1510.40   0.001075    5.43  0.000222  ( 0.000000 -0.000001 -0.014901)
 68:   1554.89   0.066563  336.38  0.013359  ( 0.000163  0.115581 -0.000000)
 69:   1561.36   0.002495   12.61  0.000499  ( 0.000001  0.000001  0.022331)
 70:   1644.61   0.002106   10.64  0.000400  (-0.000000  0.000000 -0.019989)
 71:   1677.01   0.001423    7.19  0.000265  ( 0.014586  0.007209  0.000001)
 72:   1681.76   0.000628    3.17  0.000117  ( 0.000000  0.000004 -0.010795)
 73:   1687.62   0.028132  142.17  0.005202  ( 0.000993 -0.072118  0.000000)
 74:   1690.92   0.001779    8.99  0.000328  ( 0.000000 -0.000002 -0.018121)
 75:   3207.25   0.000382    1.93  0.000037  ( 0.000632 -0.006066  0.000007)
 76:   3207.28   0.000041    0.21  0.000004  (-0.000002  0.000020  0.001990)
 77:   3214.43   0.001470    7.43  0.000143  ( 0.007968  0.008901  0.000019)
 78:   3214.45   0.000886    4.48  0.000086  ( 0.000016  0.000018 -0.009272)
 79:   3222.71   0.003374   17.05  0.000327  (-0.009137  0.015595 -0.000045)
 80:   3222.74   0.002988   15.10  0.000289  (-0.000024  0.000042  0.017011)
 81:   3231.10   0.004198   21.22  0.000405  (-0.006354 -0.019108  0.000000)
 82:   3231.16   0.000030    0.15  0.000003  ( 0.000000  0.000002  0.001714)
 83:   3239.55   0.000228    1.15  0.000022  (-0.004603  0.000880  0.000025)
 84:   3239.63   0.000125    0.63  0.000012  ( 0.000032 -0.000006  0.003471)
 85:   3294.16   0.003110   15.72  0.000295  ( 0.000340  0.017162  0.000000)
 86:   3314.00   0.000710    3.59  0.000067  (-0.000000 -0.000001  0.008176)

--------------------------
THERMOCHEMISTRY AT 298.15K
--------------------------

Temperature         ... 298.15 K
Pressure            ... 1.00 atm
Total Mass          ... 220.28 AMU

Throughout the following assumptions are being made:
  (1) The electronic state is orbitally nondegenerate
  (2) There are no thermally accessible electronically excited states
  (3) Hindered rotations indicated by low frequency modes are not
      treated as such but are treated as vibrations and this may
      cause some error
  (4) All equations used are the standard statistical mechanics
      equations for an ideal gas
  (5) All vibrations are strictly harmonic

freq.      41.21  E(vib)   ...       0.54
freq.      50.32  E(vib)   ...       0.52
freq.      75.96  E(vib)   ...       0.49
freq.      88.87  E(vib)   ...       0.47
freq.     135.68  E(vib)   ...       0.42
freq.     164.65  E(vib)   ...       0.39
freq.     255.02  E(vib)   ...       0.30
freq.     304.84  E(vib)   ...       0.26
freq.     308.68  E(vib)   ...       0.26
freq.     417.52  E(vib)   ...       0.18
freq.     428.77  E(vib)   ...       0.18
freq.     430.89  E(vib)   ...       0.18
freq.     433.35  E(vib)   ...       0.17
freq.     478.13  E(vib)   ...       0.15
freq.     542.27  E(vib)   ...       0.12
freq.     578.31  E(vib)   ...       0.11
freq.     629.23  E(vib)   ...       0.09
freq.     631.08  E(vib)   ...       0.09
freq.     661.98  E(vib)   ...       0.08
freq.     663.74  E(vib)   ...       0.08
freq.     694.09  E(vib)   ...       0.07
freq.     727.29  E(vib)   ...       0.06
freq.     727.60  E(vib)   ...       0.06
freq.     728.08  E(vib)   ...       0.06
freq.     758.18  E(vib)   ...       0.06
freq.     804.54  E(vib)   ...       0.05
freq.     807.16  E(vib)   ...       0.05
freq.     879.37  E(vib)   ...       0.04
freq.     879.44  E(vib)   ...       0.04
freq.     892.49  E(vib)   ...       0.03
freq.     965.81  E(vib)   ...       0.03
freq.     966.06  E(vib)   ...       0.03
freq.     970.66  E(vib)   ...       0.03
freq.     978.69  E(vib)   ...       0.03
freq.    1025.37  E(vib)   ...       0.02
freq.    1025.41  E(vib)   ...       0.02
freq.    1028.75  E(vib)   ...       0.02
freq.    1029.10  E(vib)   ...       0.02
freq.    1046.80  E(vib)   ...       0.02
freq.    1046.83  E(vib)   ...       0.02
freq.    1061.40  E(vib)   ...       0.02
freq.    1063.22  E(vib)   ...       0.02
freq.    1105.68  E(vib)   ...       0.02
freq.    1108.03  E(vib)   ...       0.02
freq.    1115.60  E(vib)   ...       0.01
freq.    1121.65  E(vib)   ...       0.01
freq.    1138.87  E(vib)   ...       0.01
freq.    1174.06  E(vib)   ...       0.01
freq.    1174.30  E(vib)   ...       0.01
freq.    1199.58  E(vib)   ...       0.01
freq.    1199.90  E(vib)   ...       0.01
freq.    1281.88  E(vib)   ...       0.01
freq.    1297.21  E(vib)   ...       0.01
freq.    1307.36  E(vib)   ...       0.01
freq.    1321.73  E(vib)   ...       0.01
freq.    1341.04  E(vib)   ...       0.01
freq.    1366.96  E(vib)   ...       0.01
freq.    1382.83  E(vib)   ...       0.01
freq.    1427.83  E(vib)   ...       0.00
freq.    1457.96  E(vib)   ...       0.00
freq.    1508.04  E(vib)   ...       0.00
freq.    1510.40  E(vib)   ...       0.00
freq.    1554.89  E(vib)   ...       0.00
freq.    1561.36  E(vib)   ...       0.00
freq.    1644.61  E(vib)   ...       0.00
freq.    1677.01  E(vib)   ...       0.00
freq.    1681.76  E(vib)   ...       0.00
freq.    1687.62  E(vib)   ...       0.00
freq.    1690.92  E(vib)   ...       0.00
freq.    3207.25  E(vib)   ...       0.00
freq.    3207.28  E(vib)   ...       0.00
freq.    3214.43  E(vib)   ...       0.00
freq.    3214.45  E(vib)   ...       0.00
freq.    3222.71  E(vib)   ...       0.00
freq.    3222.74  E(vib)   ...       0.00
freq.    3231.10  E(vib)   ...       0.00
freq.    3231.16  E(vib)   ...       0.00
freq.    3239.55  E(vib)   ...       0.00
freq.    3239.63  E(vib)   ...       0.00
freq.    3294.16  E(vib)   ...       0.00
freq.    3314.00  E(vib)   ...       0.00

------------
INNER ENERGY
------------

The inner energy is: U= E(el) + E(ZPE) + E(vib) + E(rot) + E(trans)
    E(el)   - is the total energy from the electronic structure calculation
              = E(kin-el) + E(nuc-el) + E(el-el) + E(nuc-nuc)
    E(ZPE)  - the the zero temperature vibrational energy from the frequency calculation
    E(vib)  - the the finite temperature correction to E(ZPE) due to population
              of excited vibrational states
    E(rot)  - is the rotational thermal energy
    E(trans)- is the translational thermal energy

Summary of contributions to the inner energy U:
Electronic energy                ...   -688.35081869 Eh
Zero point energy                ...      0.23534455 Eh     147.68 kcal/mol
Thermal vibrational correction   ...      0.00965691 Eh       6.06 kcal/mol
Thermal rotational correction    ...      0.00141627 Eh       0.89 kcal/mol
Thermal translational correction ...      0.00141627 Eh       0.89 kcal/mol
-----------------------------------------------------------------------
Total thermal energy                   -688.10298469 Eh

Summary of corrections to the electronic energy:
(perhaps to be used in another calculation)
Total thermal correction                  0.01248945 Eh       7.84 kcal/mol
Non-thermal (ZPE) correction              0.23534455 Eh     147.68 kcal/mol
-----------------------------------------------------------------------
Total correction                          0.24783399 Eh     155.52 kcal/mol

--------
ENTHALPY
--------

The enthalpy is H = U + kB*T
                kB is Boltzmann's constant
Total free energy                 ...   -688.10298469 Eh
Thermal Enthalpy correction       ...      0.00094421 Eh       0.59 kcal/mol
-----------------------------------------------------------------------
Total Enthalpy                    ...   -688.10204048 Eh

Note: Rotational entropy computed according to Herzberg
Infrared and Raman Spectra, Chapter V,1, Van Nostrand Reinhold, 1945
Point Group:  C2, Symmetry Number:   2
Rotational constants in cm-1:     0.055421     0.006858     0.006412

Vibrational entropy computed according to the QRRHO of S. Grimme
Chem.Eur.J. 2012 18 9955

-------
ENTROPY
-------

The entropy contributions are T*S = T*(S(el)+S(vib)+S(rot)+S(trans))
     S(el)   - electronic entropy
     S(vib)  - vibrational entropy
     S(rot)  - rotational entropy
     S(trans)- translational entropy
The entropies will be listed as multiplied by the temperature to get

                             ****ORCA TERMINATED NORMALLY****
TOTAL RUN TIME: 0 days 2 hours 2 minutes 35 seconds 893 msec
