                         Program Version 5.0.4 -  RELEASE  -
|  1> # ORCA 5.0.4 - /users/bwb16179/postgrad/2024_06/pKa_Reviewer_Comments/Aq_Z=0/8_deprot.inp # write input file
|  2> # Basic Mode
|  3> #
|  4> ! Opt Freq wB97X Def2-TZVP D4 SlowConv TightSCF Defgrid2 Def2/J RIJCOSX CPCM(Water)
|  5>
|  6> %PAL NPROCS 4 END
|  7>
|  8> %maxcore 4500
|  9>
| 10> %geom
| 11> Maxiter 150
| 12> END
| 13>
| 14> * xyzfile 0 1 8_deprot.xyz
| 15>
| 16>                          ****END OF INPUT****
 Total Charge           Charge          ....    0
 Multiplicity           Mult            ....    1
 Number of Electrons    NEL             ....  148
Dispersion correction           -0.009614583
FINAL SINGLE POINT ENERGY      -845.635556993940
Dispersion correction            ... Starting D4
Dispersion correction           -0.009649201
FINAL SINGLE POINT ENERGY      -845.637582588468
Dispersion correction            ... Starting D4
Dispersion correction           -0.009649954
FINAL SINGLE POINT ENERGY      -845.637610246127
Dispersion correction            ... Starting D4
FINAL SINGLE POINT ENERGY      -845.637605222919
FINAL SINGLE POINT ENERGY      -845.637598507742
FINAL SINGLE POINT ENERGY      -845.637596496181
FINAL SINGLE POINT ENERGY      -845.637600297157
FINAL SINGLE POINT ENERGY      -845.637607367825
Dispersion correction           -0.009648713
FINAL SINGLE POINT ENERGY      -845.637616675715
Dispersion correction            ... Starting D4
Dispersion correction           -0.009648492
FINAL SINGLE POINT ENERGY      -845.637620228077
Dispersion correction            ... Starting D4
                    ***********************HURRAY********************

CARTESIAN COORDINATES (ANGSTROEM)
---------------------------------
  C      0.155610   -1.282667    0.208059
  N     -0.918347   -0.464094    0.326976
  C     -0.562593    0.855316    0.559411
  C      0.781916    0.878740    0.590416
  N      1.193546   -0.427351    0.376022
  C     -2.271617   -0.912060    0.197553
  C     -2.814131   -1.038969   -1.080857
  C     -4.129903   -1.476845   -1.188444
  C     -4.872442   -1.775208   -0.056855
  C     -4.310044   -1.639030    1.202481
  C     -2.997945   -1.201663    1.351735
  C     -2.002852   -0.714786   -2.304338
  H     -1.171666   -1.414355   -2.419013
  H     -1.570959    0.286360   -2.240130
  H     -2.622366   -0.766578   -3.199065
  C     -2.382302   -1.046578    2.714372
  H     -1.456323   -1.620303    2.795121
  H     -3.071524   -1.388204    3.485673
  H     -2.133003   -0.002763    2.918242
  C      2.566131   -0.826142    0.300000
  C      3.184239   -0.850792   -0.949524
  C      4.516361   -1.246501   -1.008128
  C      5.201896   -1.598182    0.143940
  C      4.565129   -1.560801    1.374556
  C      3.233207   -1.172051    1.474101
  C      2.431102   -0.470541   -2.193882
  H      3.096549   -0.460941   -3.056500
  H      1.976327    0.517598   -2.096896
  H      1.621844   -1.177507   -2.391400
  C      2.534061   -1.126199    2.803922
  H      2.185975   -0.116417    3.032492
  H      3.205911   -1.444399    3.600139
  H      1.656359   -1.776611    2.808468
  H     -4.573588   -1.580134   -2.172638
  H     -5.896891   -2.114965   -0.157195
  H     -4.892674   -1.874751    2.086273
  H      6.240416   -1.902744    0.082476
  H      5.104546   -1.836308    2.274162
  H      5.017591   -1.275050   -1.969419
  H     -1.291802    1.640085    0.678839
  H      1.477710    1.688182    0.740583

 Multiplicity           Mult            ....    1
 Number of Electrons    NEL             ....  148
 Basis Dimension        Dim             ....  771

ORBITAL ENERGIES
----------------

  NO   OCC          E(Eh)            E(eV)
   0   2.0000     -14.447792      -393.1444
   1   2.0000     -14.447701      -393.1419
   2   2.0000     -10.296983      -280.1952
   3   2.0000     -10.296855      -280.1917
   4   2.0000     -10.286842      -279.9192
   5   2.0000     -10.286059      -279.8979
   6   2.0000     -10.278190      -279.6838
   7   2.0000     -10.275181      -279.6019
   8   2.0000     -10.275143      -279.6009
   9   2.0000     -10.275094      -279.5995
  10   2.0000     -10.275027      -279.5977
  11   2.0000     -10.260478      -279.2018
  12   2.0000     -10.260372      -279.1989
  13   2.0000     -10.256204      -279.0855
  14   2.0000     -10.256124      -279.0833
  15   2.0000     -10.256098      -279.0826
  16   2.0000     -10.255999      -279.0799
  17   2.0000     -10.248721      -278.8819
  18   2.0000     -10.248626      -278.8793
  19   2.0000     -10.248401      -278.8732
  20   2.0000     -10.248142      -278.8661
  21   2.0000      -1.170589       -31.8533
  22   2.0000      -1.070461       -29.1287
  23   2.0000      -1.007539       -27.4165
  24   2.0000      -0.986738       -26.8505
  25   2.0000      -0.922272       -25.0963
  26   2.0000      -0.921874       -25.0855
  27   2.0000      -0.915404       -24.9094
  28   2.0000      -0.882409       -24.0116
  29   2.0000      -0.879315       -23.9274
  30   2.0000      -0.837582       -22.7918
  31   2.0000      -0.820178       -22.3182
  32   2.0000      -0.810144       -22.0452
  33   2.0000      -0.809183       -22.0190
  34   2.0000      -0.767332       -20.8802
  35   2.0000      -0.742322       -20.1996
  36   2.0000      -0.704857       -19.1801
  37   2.0000      -0.703824       -19.1520
  38   2.0000      -0.701702       -19.0943
  39   2.0000      -0.683908       -18.6101
  40   2.0000      -0.654283       -17.8040
  41   2.0000      -0.620795       -16.8927
  42   2.0000      -0.613981       -16.7073
  43   2.0000      -0.599459       -16.3121
  44   2.0000      -0.594964       -16.1898
  45   2.0000      -0.564718       -15.3668
  46   2.0000      -0.557172       -15.1614
  47   2.0000      -0.554344       -15.0845
  48   2.0000      -0.539617       -14.6837
  49   2.0000      -0.536804       -14.6072
  50   2.0000      -0.532096       -14.4791
  51   2.0000      -0.525853       -14.3092
  52   2.0000      -0.525715       -14.3054
  53   2.0000      -0.524288       -14.2666
  54   2.0000      -0.521193       -14.1824
  55   2.0000      -0.514030       -13.9875
  56   2.0000      -0.513853       -13.9827
  57   2.0000      -0.511895       -13.9294
  58   2.0000      -0.508998       -13.8505
  59   2.0000      -0.480628       -13.0786
  60   2.0000      -0.478026       -13.0078
  61   2.0000      -0.464762       -12.6468
  62   2.0000      -0.461766       -12.5653
  63   2.0000      -0.455454       -12.3935
  64   2.0000      -0.451563       -12.2877
  65   2.0000      -0.445076       -12.1111
  66   2.0000      -0.444363       -12.0917
  67   2.0000      -0.390608       -10.6290
  68   2.0000      -0.349724        -9.5165
  69   2.0000      -0.344088        -9.3631
  70   2.0000      -0.340883        -9.2759
  71   2.0000      -0.339981        -9.2514
  72   2.0000      -0.337900        -9.1947
  73   2.0000      -0.334817        -9.1108
  74   0.0000       0.057871         1.5747
  75   0.0000       0.064397         1.7523
  76   0.0000       0.068380         1.8607
  77   0.0000       0.069875         1.9014
  78   0.0000       0.094490         2.5712

MULLIKEN ATOMIC CHARGES
-----------------------
   0 C :   -0.262664
   1 N :    0.074502
   2 C :   -0.142241
   3 C :   -0.147664
   4 N :    0.076599
   5 C :    0.084416
   6 C :   -0.059052
   7 C :   -0.170467
   8 C :   -0.173003
   9 C :   -0.168493
  10 C :   -0.064886
  11 C :   -0.407496
  12 H :    0.145568
  13 H :    0.147122
  14 H :    0.147954
  15 C :   -0.400027
  16 H :    0.144789
  17 H :    0.147427
  18 H :    0.148800
  19 C :    0.089742
  20 C :   -0.065336
  21 C :   -0.167308
  22 C :   -0.173531
  23 C :   -0.166674
  24 C :   -0.064874
  25 C :   -0.404653
  26 H :    0.148310
  27 H :    0.147127
  28 H :    0.143994
  29 C :   -0.402190
  30 H :    0.147886
  31 H :    0.147352
  32 H :    0.145307
  33 H :    0.154325
  34 H :    0.160897
  35 H :    0.154075
  36 H :    0.160967
  37 H :    0.154236
  38 H :    0.154346
  39 H :    0.208110
  40 H :    0.206709
Sum of atomic charges:   -0.0000000

LOEWDIN ATOMIC CHARGES
----------------------
   0 C :   -0.375966
   1 N :    0.256731
   2 C :   -0.201109
   3 C :   -0.201448
   4 N :    0.257069
   5 C :   -0.122355
   6 C :   -0.137353
   7 C :   -0.125447
   8 C :   -0.141375
   9 C :   -0.125544
  10 C :   -0.138237
  11 C :   -0.245540
  12 H :    0.131615
  13 H :    0.133191
  14 H :    0.131893
  15 C :   -0.244060
  16 H :    0.132178
  17 H :    0.132223
  18 H :    0.133976
  19 C :   -0.122591
  20 C :   -0.137451
  21 C :   -0.125318
  22 C :   -0.141267
  23 C :   -0.125614
  24 C :   -0.138236
  25 C :   -0.244580
  26 H :    0.132080
  27 H :    0.133225
  28 H :    0.132114
  29 C :   -0.244502
  30 H :    0.133768
  31 H :    0.132122
  32 H :    0.132137
  33 H :    0.154487
  34 H :    0.153277
  35 H :    0.154424
  36 H :    0.153311
  37 H :    0.154434
  38 H :    0.154498
  39 H :    0.154633
  40 H :    0.154607

  Mayer bond orders larger than 0.100000
B(  0-C ,  1-N ) :   1.1860 B(  0-C ,  4-N ) :   1.1867 B(  1-N ,  2-C ) :   1.0745
B(  1-N ,  5-C ) :   0.8852 B(  2-C ,  3-C ) :   1.6316 B(  2-C , 39-H ) :   0.9683
B(  3-C ,  4-N ) :   1.0757 B(  3-C , 40-H ) :   0.9706 B(  4-N , 19-C ) :   0.8844
B(  5-C ,  6-C ) :   1.4171 B(  5-C , 10-C ) :   1.4225 B(  6-C ,  7-C ) :   1.4297
B(  6-C , 11-C ) :   0.9088 B(  7-C ,  8-C ) :   1.3703 B(  7-C , 33-H ) :   0.9846
B(  8-C ,  9-C ) :   1.3707 B(  8-C , 34-H ) :   0.9940 B(  9-C , 10-C ) :   1.4307
B(  9-C , 35-H ) :   0.9852 B( 10-C , 15-C ) :   0.9100 B( 11-C , 12-H ) :   0.9672
B( 11-C , 13-H ) :   0.9857 B( 11-C , 14-H ) :   0.9890 B( 15-C , 16-H ) :   0.9818
B( 15-C , 17-H ) :   0.9900 B( 15-C , 18-H ) :   0.9699 B( 19-C , 20-C ) :   1.4163
B( 19-C , 24-C ) :   1.4183 B( 20-C , 21-C ) :   1.4309 B( 20-C , 25-C ) :   0.9104
B( 21-C , 22-C ) :   1.3699 B( 21-C , 38-H ) :   0.9846 B( 22-C , 23-C ) :   1.3694
B( 22-C , 36-H ) :   0.9937 B( 23-C , 24-C ) :   1.4311 B( 23-C , 37-H ) :   0.9851
B( 24-C , 29-C ) :   0.9097 B( 25-C , 26-H ) :   0.9905 B( 25-C , 27-H ) :   0.9832
B( 25-C , 28-H ) :   0.9688 B( 29-C , 30-H ) :   0.9744 B( 29-C , 31-H ) :   0.9907
B( 29-C , 32-H ) :   0.9771

Dispersion correction           -0.009647850
FINAL SINGLE POINT ENERGY      -845.637619553539

DIPOLE MOMENT
-------------
                                X             Y             Z
Electronic contribution:      0.00719       0.38905       0.11461
Nuclear contribution   :     -0.04167       1.24243       0.13312
                        -----------------------------------------
Total Dipole Moment    :     -0.03448       1.63147       0.24773
                        -----------------------------------------
Magnitude (a.u.)       :      1.65053
Magnitude (Debye)      :      4.19532

Dispersion correction in the Hessian             ... Starting D4

VIBRATIONAL FREQUENCIES
-----------------------

Scaling factor for frequencies =  1.000000000  (already applied!)

   0:         0.00 cm**-1
   1:         0.00 cm**-1
   2:         0.00 cm**-1
   3:         0.00 cm**-1
   4:         0.00 cm**-1
   5:         0.00 cm**-1
   6:        15.34 cm**-1
   7:        17.29 cm**-1
   8:        54.51 cm**-1
   9:        72.48 cm**-1
  10:        83.90 cm**-1
  11:        88.49 cm**-1
  12:       104.00 cm**-1
  13:       115.79 cm**-1
  14:       124.78 cm**-1
  15:       139.39 cm**-1
  16:       152.53 cm**-1
  17:       198.08 cm**-1
  18:       206.76 cm**-1
  19:       236.04 cm**-1
  20:       237.10 cm**-1
  21:       282.85 cm**-1
  22:       308.37 cm**-1
  23:       338.01 cm**-1
  24:       357.12 cm**-1
  25:       360.95 cm**-1
  26:       399.69 cm**-1
  27:       438.31 cm**-1
  28:       484.85 cm**-1
  29:       494.80 cm**-1
  30:       537.07 cm**-1
  31:       538.01 cm**-1
  32:       545.05 cm**-1
  33:       549.85 cm**-1
  34:       580.03 cm**-1
  35:       593.01 cm**-1
  36:       604.94 cm**-1
  37:       625.96 cm**-1
  38:       685.50 cm**-1
  39:       688.39 cm**-1
  40:       765.62 cm**-1
  41:       770.36 cm**-1
  42:       782.46 cm**-1
  43:       792.65 cm**-1
  44:       802.02 cm**-1
  45:       805.64 cm**-1
  46:       810.08 cm**-1
  47:       895.44 cm**-1
  48:       937.58 cm**-1
  49:       941.95 cm**-1
  50:       943.01 cm**-1
  51:       945.23 cm**-1
  52:       968.33 cm**-1
  53:       976.55 cm**-1
  54:      1016.70 cm**-1
  55:      1017.37 cm**-1
  56:      1028.34 cm**-1
  57:      1028.40 cm**-1
  58:      1064.82 cm**-1
  59:      1065.30 cm**-1
  60:      1067.52 cm**-1
  61:      1068.20 cm**-1
  62:      1071.27 cm**-1
  63:      1073.32 cm**-1
  64:      1099.28 cm**-1
  65:      1101.80 cm**-1
  66:      1109.82 cm**-1
  67:      1137.51 cm**-1
  68:      1147.38 cm**-1
  69:      1186.61 cm**-1
  70:      1187.60 cm**-1
  71:      1266.03 cm**-1
  72:      1291.96 cm**-1
  73:      1293.21 cm**-1
  74:      1297.29 cm**-1
  75:      1299.16 cm**-1
  76:      1303.35 cm**-1
  77:      1305.02 cm**-1
  78:      1318.46 cm**-1
  79:      1357.34 cm**-1
  80:      1405.58 cm**-1
  81:      1412.15 cm**-1
  82:      1413.49 cm**-1
  83:      1417.65 cm**-1
  84:      1422.52 cm**-1
  85:      1445.48 cm**-1
  86:      1470.23 cm**-1
  87:      1471.79 cm**-1
  88:      1473.18 cm**-1
  89:      1473.64 cm**-1
  90:      1475.15 cm**-1
  91:      1476.14 cm**-1
  92:      1477.11 cm**-1
  93:      1479.88 cm**-1
  94:      1530.07 cm**-1
  95:      1530.41 cm**-1
  96:      1542.60 cm**-1
  97:      1549.09 cm**-1
  98:      1634.21 cm**-1
  99:      1679.40 cm**-1
 100:      1680.92 cm**-1
 101:      1683.26 cm**-1
 102:      1684.04 cm**-1
 103:      3066.51 cm**-1
 104:      3067.33 cm**-1
 105:      3067.63 cm**-1
 106:      3068.62 cm**-1
 107:      3131.22 cm**-1
 108:      3131.52 cm**-1
 109:      3132.04 cm**-1
 110:      3132.93 cm**-1
 111:      3162.15 cm**-1
 112:      3162.46 cm**-1
 113:      3163.96 cm**-1
 114:      3164.30 cm**-1
 115:      3198.98 cm**-1
 116:      3199.01 cm**-1
 117:      3206.33 cm**-1
 118:      3206.45 cm**-1
 119:      3221.86 cm**-1
 120:      3221.94 cm**-1
 121:      3285.09 cm**-1
 122:      3305.56 cm**-1

IR SPECTRUM
-----------

 Mode   freq       eps      Int      T**2         TX        TY        TZ
       cm**-1   L/(mol*cm) km/mol    a.u.
----------------------------------------------------------------------------
  6:     15.34   0.000006    0.03  0.000114  ( 0.002026  0.007848 -0.006938)
  7:     17.29   0.000021    0.11  0.000386  (-0.001882 -0.004097 -0.019116)
  8:     54.51   0.000094    0.48  0.000538  (-0.000089 -0.009654 -0.021099)
  9:     72.48   0.002214   11.19  0.009532  (-0.001955 -0.018803  0.095783)
 10:     83.90   0.000028    0.14  0.000105  ( 0.000080  0.005618 -0.008566)
 11:     88.49   0.000169    0.85  0.000595  ( 0.011184  0.011386  0.018437)
 12:    104.00   0.000369    1.86  0.001106  ( 0.008142 -0.018100 -0.026682)
 13:    115.79   0.000436    2.20  0.001174  ( 0.009375  0.026338 -0.019811)
 14:    124.78   0.000563    2.85  0.001409  (-0.014632  0.033563 -0.008250)
 15:    139.39   0.000569    2.87  0.001273  ( 0.006362  0.033729  0.009732)
 16:    152.53   0.000118    0.60  0.000241  ( 0.008129 -0.001346  0.013171)
 17:    198.08   0.002158   10.91  0.003400  (-0.058187  0.003214 -0.002083)
 18:    206.76   0.000954    4.82  0.001440  (-0.006194 -0.037249 -0.003804)
 19:    236.04   0.000010    0.05  0.000013  ( 0.002167  0.000912 -0.002803)
 20:    237.10   0.000008    0.04  0.000011  ( 0.000892  0.001468 -0.002764)
 21:    282.85   0.000831    4.20  0.000916  ( 0.030234  0.000111  0.001529)
 22:    308.37   0.003179   16.07  0.003217  ( 0.000592 -0.010323  0.055770)
 23:    338.01   0.002508   12.67  0.002316  (-0.000197  0.047593  0.007101)
 24:    357.12   0.001359    6.87  0.001187  (-0.000994  0.034201  0.004069)
 25:    360.95   0.000054    0.27  0.000046  ( 0.003662  0.005546  0.001472)
 26:    399.69   0.000509    2.57  0.000398  ( 0.019870 -0.000326 -0.001652)
 27:    438.31   0.000040    0.20  0.000028  (-0.005215  0.000045  0.001089)
 28:    484.85   0.000301    1.52  0.000194  ( 0.000149  0.002482 -0.013691)
 29:    494.80   0.000016    0.08  0.000010  ( 0.003055  0.000102 -0.000934)
 30:    537.07   0.000005    0.02  0.000003  (-0.000088  0.001590 -0.000408)
 31:    538.01   0.000004    0.02  0.000002  (-0.001332 -0.000193  0.000771)
 32:    545.05   0.000048    0.24  0.000028  ( 0.000473 -0.000825 -0.005167)
 33:    549.85   0.000002    0.01  0.000001  (-0.000985 -0.000300  0.000441)
 34:    580.03   0.000330    1.67  0.000178  (-0.000012  0.013097  0.002479)
 35:    593.01   0.000003    0.01  0.000001  (-0.000101  0.001102  0.000396)
 36:    604.94   0.000008    0.04  0.000004  (-0.001314 -0.001176 -0.000991)
 37:    625.96   0.001867    9.44  0.000931  ( 0.030505 -0.000344 -0.000263)
 38:    685.50   0.000064    0.32  0.000029  ( 0.001213 -0.001807  0.004940)
 39:    688.39   0.001813    9.16  0.000822  ( 0.002059  0.002677 -0.028471)
 40:    765.62   0.019911  100.62  0.008116  ( 0.002488  0.017026 -0.088430)
 41:    770.36   0.000052    0.26  0.000021  (-0.000512  0.003646  0.002738)
 42:    782.46   0.001548    7.82  0.000617  ( 0.024837  0.000547  0.000191)
 43:    792.65   0.001122    5.67  0.000442  ( 0.001510  0.020026  0.006185)
 44:    802.02   0.000985    4.98  0.000383  ( 0.018042  0.007456  0.001417)
 45:    805.64   0.019796  100.04  0.007668  ( 0.025391  0.083268  0.009478)
 46:    810.08   0.014933   75.47  0.005753  ( 0.036630 -0.066403 -0.001253)
 47:    895.44   0.000016    0.08  0.000006  ( 0.000982  0.000838 -0.002015)
 48:    937.58   0.000120    0.61  0.000040  (-0.002649 -0.003648 -0.004424)
 49:    941.95   0.001728    8.73  0.000572  ( 0.003102  0.001831 -0.023651)
 50:    943.01   0.001483    7.49  0.000491  ( 0.000383 -0.002937  0.021955)
 51:    945.23   0.000093    0.47  0.000031  (-0.000534 -0.000233 -0.005505)
 52:    968.33   0.009291   46.95  0.002994  ( 0.054678  0.001403  0.001576)
 53:    976.55   0.000729    3.68  0.000233  (-0.001639  0.014546  0.004312)
 54:   1016.70   0.000730    3.69  0.000224  (-0.014538 -0.003323 -0.001257)
 55:   1017.37   0.000728    3.68  0.000223  ( 0.014631 -0.002999 -0.000434)
 56:   1028.34   0.000020    0.10  0.000006  (-0.002179 -0.001146 -0.000089)
 57:   1028.40   0.000085    0.43  0.000026  (-0.001379  0.004714 -0.001350)
 58:   1064.82   0.000321    1.62  0.000094  (-0.002708 -0.008813  0.002988)
 59:   1065.30   0.000250    1.26  0.000073  ( 0.001541 -0.001261 -0.008324)
 60:   1067.52   0.000376    1.90  0.000110  (-0.006840  0.007931 -0.000516)
 61:   1068.20   0.002968   15.00  0.000867  ( 0.001192  0.027467  0.010545)
 62:   1071.27   0.000357    1.80  0.000104  (-0.005236  0.008339  0.002647)
 63:   1073.32   0.000940    4.75  0.000273  (-0.001883 -0.016122 -0.003118)
 64:   1099.28   0.000367    1.86  0.000104  ( 0.001120  0.010125  0.000666)
 65:   1101.80   0.000072    0.36  0.000020  ( 0.003981  0.002113  0.000157)
 66:   1109.82   0.003820   19.30  0.001074  ( 0.004553 -0.031867 -0.006152)
 67:   1137.51   0.006846   34.60  0.001878  ( 0.043273  0.002066  0.001150)
 68:   1147.38   0.000242    1.22  0.000066  (-0.007317 -0.003210 -0.001412)
 69:   1186.61   0.000921    4.66  0.000242  (-0.001208  0.002292 -0.015349)
 70:   1187.60   0.000960    4.85  0.000252  ( 0.001559  0.001757 -0.015706)
 71:   1266.03   0.009360   47.30  0.002307  ( 0.048002  0.001125  0.001332)
 72:   1291.96   0.000099    0.50  0.000024  ( 0.001726 -0.000154  0.004565)
 73:   1293.21   0.000292    1.48  0.000070  (-0.003487  0.000181  0.007633)
 74:   1297.29   0.000098    0.50  0.000024  (-0.000610  0.001476  0.004592)
 75:   1299.16   0.000037    0.19  0.000009  ( 0.000538  0.000733 -0.002824)
 76:   1303.35   0.001118    5.65  0.000268  ( 0.002614  0.002916 -0.015884)
 77:   1305.02   0.001445    7.30  0.000346  (-0.005836  0.002655 -0.017447)
 78:   1318.46   0.008414   42.52  0.001992  ( 0.044603  0.001427 -0.000317)
 79:   1357.34   0.002168   10.96  0.000498  (-0.000520  0.021166  0.007080)
 80:   1405.58   0.000082    0.41  0.000018  ( 0.000459  0.004027  0.001296)
 81:   1412.15   0.000401    2.03  0.000089  ( 0.005211  0.000738  0.007803)
 82:   1413.49   0.000199    1.00  0.000044  (-0.004320 -0.001303 -0.004847)
 83:   1417.65   0.001602    8.09  0.000353  ( 0.018427  0.000207 -0.003603)
 84:   1422.52   0.000010    0.05  0.000002  (-0.001496 -0.000183 -0.000003)
 85:   1445.48   0.013468   68.06  0.002908  ( 0.053892  0.001109  0.001383)
 86:   1470.23   0.003721   18.81  0.000790  (-0.013030  0.023964  0.006764)
 87:   1471.79   0.004044   20.44  0.000857  (-0.003923 -0.026732 -0.011287)
 88:   1473.18   0.000737    3.72  0.000156  ( 0.010760  0.004421  0.004562)
 89:   1473.64   0.002669   13.49  0.000565  (-0.000994 -0.021391 -0.010331)
 90:   1475.15   0.001604    8.10  0.000339  ( 0.001103 -0.014203  0.011675)
 91:   1476.14   0.001443    7.29  0.000305  (-0.001502  0.015458 -0.007996)
 92:   1477.11   0.002127   10.75  0.000449  (-0.010319 -0.017147  0.006983)
 93:   1479.88   0.000362    1.83  0.000076  ( 0.006614 -0.005047  0.002679)
 94:   1530.07   0.001534    7.75  0.000313  ( 0.003965 -0.003599  0.016856)
 95:   1530.41   0.009347   47.24  0.001906  ( 0.002149  0.004815 -0.043337)
 96:   1542.60   0.053499  270.36  0.010823  ( 0.104015  0.001165  0.001471)
 97:   1549.09   0.002429   12.28  0.000489  (-0.002817 -0.021294 -0.005287)
 98:   1634.21   0.000478    2.41  0.000091  ( 0.000160  0.009524  0.000671)
 99:   1679.40   0.000054    0.27  0.000010  (-0.003145 -0.000465 -0.000017)
100:   1680.92   0.000046    0.23  0.000009  ( 0.000365 -0.002857 -0.000473)
101:   1683.26   0.000607    3.07  0.000113  ( 0.000970 -0.000233 -0.010563)
102:   1684.04   0.005296   26.76  0.000981  (-0.000806 -0.003038  0.031169)
103:   3066.51   0.009887   49.96  0.001006  (-0.004641  0.007187 -0.030544)
104:   3067.33   0.004799   24.25  0.000488  (-0.004963  0.003354  0.021268)
105:   3067.63   0.001956    9.89  0.000199  (-0.012655 -0.004514 -0.004298)
106:   3068.62   0.003680   18.60  0.000374  (-0.018372 -0.000720  0.006018)
107:   3131.22   0.005344   27.01  0.000533  (-0.001701 -0.023015  0.000004)
108:   3131.52   0.004879   24.66  0.000486  (-0.002204  0.021885  0.001545)
109:   3132.04   0.000730    3.69  0.000073  (-0.004306  0.007364  0.000029)
110:   3132.93   0.000567    2.87  0.000056  (-0.005816 -0.004504 -0.001541)
111:   3162.15   0.005430   27.44  0.000536  ( 0.012857  0.003119  0.018996)
112:   3162.46   0.005299   26.78  0.000523  (-0.017523  0.001504  0.014612)
113:   3163.96   0.004023   20.33  0.000397  (-0.005596 -0.009268  0.016719)
114:   3164.30   0.005619   28.40  0.000554  (-0.023001  0.002202 -0.004505)
115:   3198.98   0.000001    0.00  0.000000  ( 0.000255  0.000079 -0.000091)
116:   3199.01   0.000003    0.01  0.000000  ( 0.000230 -0.000437  0.000045)
117:   3206.33   0.003966   20.04  0.000386  ( 0.001244  0.001303 -0.019564)
118:   3206.45   0.003864   19.53  0.000376  (-0.000171  0.002538 -0.019226)
119:   3221.86   0.004727   23.89  0.000458  ( 0.020939 -0.004326 -0.000826)
120:   3221.94   0.003000   15.16  0.000291  (-0.015599 -0.006514 -0.002204)
121:   3285.09   0.002512   12.69  0.000239  ( 0.015439  0.000358  0.000331)
122:   3305.56   0.000364    1.84  0.000034  (-0.000095 -0.005792 -0.000896)

--------------------------
THERMOCHEMISTRY AT 298.15K
--------------------------

Temperature         ... 298.15 K
Pressure            ... 1.00 atm
Total Mass          ... 276.38 AMU

Throughout the following assumptions are being made:
  (1) The electronic state is orbitally nondegenerate
  (2) There are no thermally accessible electronically excited states
  (3) Hindered rotations indicated by low frequency modes are not
      treated as such but are treated as vibrations and this may
      cause some error
  (4) All equations used are the standard statistical mechanics
      equations for an ideal gas
  (5) All vibrations are strictly harmonic

freq.      15.34  E(vib)   ...       0.57
freq.      17.29  E(vib)   ...       0.57
freq.      54.51  E(vib)   ...       0.52
freq.      72.48  E(vib)   ...       0.49
freq.      83.90  E(vib)   ...       0.48
freq.      88.49  E(vib)   ...       0.47
freq.     104.00  E(vib)   ...       0.46
freq.     115.79  E(vib)   ...       0.44
freq.     124.78  E(vib)   ...       0.43
freq.     139.39  E(vib)   ...       0.42
freq.     152.53  E(vib)   ...       0.40
freq.     198.08  E(vib)   ...       0.35
freq.     206.76  E(vib)   ...       0.35
freq.     236.04  E(vib)   ...       0.32
freq.     237.10  E(vib)   ...       0.32
freq.     282.85  E(vib)   ...       0.28
freq.     308.37  E(vib)   ...       0.26
freq.     338.01  E(vib)   ...       0.24
freq.     357.12  E(vib)   ...       0.22
freq.     360.95  E(vib)   ...       0.22
freq.     399.69  E(vib)   ...       0.19
freq.     438.31  E(vib)   ...       0.17
freq.     484.85  E(vib)   ...       0.15
freq.     494.80  E(vib)   ...       0.14
freq.     537.07  E(vib)   ...       0.12
freq.     538.01  E(vib)   ...       0.12
freq.     545.05  E(vib)   ...       0.12
freq.     549.85  E(vib)   ...       0.12
freq.     580.03  E(vib)   ...       0.11
freq.     593.01  E(vib)   ...       0.10
freq.     604.94  E(vib)   ...       0.10
freq.     625.96  E(vib)   ...       0.09
freq.     685.50  E(vib)   ...       0.07
freq.     688.39  E(vib)   ...       0.07
freq.     765.62  E(vib)   ...       0.06
freq.     770.36  E(vib)   ...       0.05
freq.     782.46  E(vib)   ...       0.05
freq.     792.65  E(vib)   ...       0.05
freq.     802.02  E(vib)   ...       0.05
freq.     805.64  E(vib)   ...       0.05
freq.     810.08  E(vib)   ...       0.05
freq.     895.44  E(vib)   ...       0.03
freq.     937.58  E(vib)   ...       0.03
freq.     941.95  E(vib)   ...       0.03
freq.     943.01  E(vib)   ...       0.03
freq.     945.23  E(vib)   ...       0.03
freq.     968.33  E(vib)   ...       0.03
freq.     976.55  E(vib)   ...       0.03
freq.    1016.70  E(vib)   ...       0.02
freq.    1017.37  E(vib)   ...       0.02
freq.    1028.34  E(vib)   ...       0.02
freq.    1028.40  E(vib)   ...       0.02
freq.    1064.82  E(vib)   ...       0.02
freq.    1065.30  E(vib)   ...       0.02
freq.    1067.52  E(vib)   ...       0.02
freq.    1068.20  E(vib)   ...       0.02
freq.    1071.27  E(vib)   ...       0.02
freq.    1073.32  E(vib)   ...       0.02
freq.    1099.28  E(vib)   ...       0.02
freq.    1101.80  E(vib)   ...       0.02
freq.    1109.82  E(vib)   ...       0.02
freq.    1137.51  E(vib)   ...       0.01
freq.    1147.38  E(vib)   ...       0.01
freq.    1186.61  E(vib)   ...       0.01
freq.    1187.60  E(vib)   ...       0.01
freq.    1266.03  E(vib)   ...       0.01
freq.    1291.96  E(vib)   ...       0.01
freq.    1293.21  E(vib)   ...       0.01
freq.    1297.29  E(vib)   ...       0.01
freq.    1299.16  E(vib)   ...       0.01
freq.    1303.35  E(vib)   ...       0.01
freq.    1305.02  E(vib)   ...       0.01
freq.    1318.46  E(vib)   ...       0.01
freq.    1357.34  E(vib)   ...       0.01
freq.    1405.58  E(vib)   ...       0.00
freq.    1412.15  E(vib)   ...       0.00
freq.    1413.49  E(vib)   ...       0.00
freq.    1417.65  E(vib)   ...       0.00
freq.    1422.52  E(vib)   ...       0.00
freq.    1445.48  E(vib)   ...       0.00
freq.    1470.23  E(vib)   ...       0.00
freq.    1471.79  E(vib)   ...       0.00
freq.    1473.18  E(vib)   ...       0.00
freq.    1473.64  E(vib)   ...       0.00
freq.    1475.15  E(vib)   ...       0.00
freq.    1476.14  E(vib)   ...       0.00
freq.    1477.11  E(vib)   ...       0.00
freq.    1479.88  E(vib)   ...       0.00
freq.    1530.07  E(vib)   ...       0.00
freq.    1530.41  E(vib)   ...       0.00
freq.    1542.60  E(vib)   ...       0.00
freq.    1549.09  E(vib)   ...       0.00
freq.    1634.21  E(vib)   ...       0.00
freq.    1679.40  E(vib)   ...       0.00
freq.    1680.92  E(vib)   ...       0.00
freq.    1683.26  E(vib)   ...       0.00
freq.    1684.04  E(vib)   ...       0.00
freq.    3066.51  E(vib)   ...       0.00
freq.    3067.33  E(vib)   ...       0.00
freq.    3067.63  E(vib)   ...       0.00
freq.    3068.62  E(vib)   ...       0.00
freq.    3131.22  E(vib)   ...       0.00
freq.    3131.52  E(vib)   ...       0.00
freq.    3132.04  E(vib)   ...       0.00
freq.    3132.93  E(vib)   ...       0.00
freq.    3162.15  E(vib)   ...       0.00
freq.    3162.46  E(vib)   ...       0.00
freq.    3163.96  E(vib)   ...       0.00
freq.    3164.30  E(vib)   ...       0.00
freq.    3198.98  E(vib)   ...       0.00
freq.    3199.01  E(vib)   ...       0.00
freq.    3206.33  E(vib)   ...       0.00
freq.    3206.45  E(vib)   ...       0.00
freq.    3221.86  E(vib)   ...       0.00
freq.    3221.94  E(vib)   ...       0.00
freq.    3285.09  E(vib)   ...       0.00
freq.    3305.56  E(vib)   ...       0.00

------------
INNER ENERGY
------------

The inner energy is: U= E(el) + E(ZPE) + E(vib) + E(rot) + E(trans)
    E(el)   - is the total energy from the electronic structure calculation
              = E(kin-el) + E(nuc-el) + E(el-el) + E(nuc-nuc)
    E(ZPE)  - the the zero temperature vibrational energy from the frequency calculation
    E(vib)  - the the finite temperature correction to E(ZPE) due to population
              of excited vibrational states
    E(rot)  - is the rotational thermal energy
    E(trans)- is the translational thermal energy

Summary of contributions to the inner energy U:
Electronic energy                ...   -845.63761955 Eh
Zero point energy                ...      0.34565057 Eh     216.90 kcal/mol
Thermal vibrational correction   ...      0.01668907 Eh      10.47 kcal/mol
Thermal rotational correction    ...      0.00141627 Eh       0.89 kcal/mol
Thermal translational correction ...      0.00141627 Eh       0.89 kcal/mol
-----------------------------------------------------------------------
Total thermal energy                   -845.27244737 Eh

Summary of corrections to the electronic energy:
(perhaps to be used in another calculation)
Total thermal correction                  0.01952161 Eh      12.25 kcal/mol

Rotational constants in cm-1:     0.023767     0.006003     0.005219

                             ****ORCA TERMINATED NORMALLY****
TOTAL RUN TIME: 0 days 4 hours 17 minutes 46 seconds 170 msec
