                         Program Version 5.0.4 -  RELEASE  -
|  1> # ORCA 5.0.4 - /users/bwb16179/postgrad/2024_06/pKa_Reviewer_Comments/Aq_Z=0/9_deprot.inp # write input file
|  2> # Basic Mode
|  3> #
|  4> ! Opt Freq wB97X Def2-TZVP D4 SlowConv TightSCF Defgrid2 Def2/J RIJCOSX CPCM(Water)
|  5>
|  6> %PAL NPROCS 4 END
|  7>
|  8> %maxcore 4500
|  9>
| 10> %geom
| 11> Maxiter 150
| 12> END
| 13>
| 14> * xyzfile 0 1 9_deprot.xyz
| 15>
| 16>                          ****END OF INPUT****
 Total Charge           Charge          ....    0
 Multiplicity           Mult            ....    1
 Number of Electrons    NEL             ....   54
Dispersion correction           -0.001938064
FINAL SINGLE POINT ENERGY      -306.045579488765
Dispersion correction            ... Starting D4
Dispersion correction           -0.001939895
FINAL SINGLE POINT ENERGY      -306.046259943149
Dispersion correction            ... Starting D4
Dispersion correction           -0.001939872
FINAL SINGLE POINT ENERGY      -306.046282360603
Dispersion correction            ... Starting D4
FINAL SINGLE POINT ENERGY      -306.046293299869
FINAL SINGLE POINT ENERGY      -306.046295070237
FINAL SINGLE POINT ENERGY      -306.046297041803
FINAL SINGLE POINT ENERGY      -306.046297068891
Dispersion correction           -0.001940635
FINAL SINGLE POINT ENERGY      -306.046296752659
Dispersion correction            ... Starting D4
Dispersion correction           -0.001940704
FINAL SINGLE POINT ENERGY      -306.046297852223
Dispersion correction            ... Starting D4
                    ***********************HURRAY********************

CARTESIAN COORDINATES (ANGSTROEM)
---------------------------------
  C      0.006040    0.762631   -1.213732
  C     -0.006036   -0.762631   -1.213732
  N     -0.169249    1.058199    0.210056
  N      0.169253   -1.058199    0.210056
  C      0.000001   -0.000000    1.011470
  H     -0.796927    1.201110   -1.808124
  H      0.796930   -1.201111   -1.808124
  C     -0.232370    2.428265    0.648651
  C      0.232367   -2.428265    0.648651
  H     -1.074494    2.942043    0.177770
  H      1.074485   -2.942049    0.177764
  H     -0.362082    2.449964    1.728910
  H      0.362087   -2.449965    1.728909
  H      0.684614    2.968795    0.390134
  H     -0.684622   -2.968790    0.390141
  H      0.958253    1.171877   -1.567673
  H     -0.958250   -1.171875   -1.567673

 Multiplicity           Mult            ....    1
 Number of Electrons    NEL             ....   54
 Basis Dimension        Dim             ....  277

ORBITAL ENERGIES
----------------

  NO   OCC          E(Eh)            E(eV)
   0   2.0000     -14.410746      -392.1363
   1   2.0000     -14.410713      -392.1354
   2   2.0000     -10.283915      -279.8395
   3   2.0000     -10.283735      -279.8347
   4   2.0000     -10.273953      -279.5685
   5   2.0000     -10.273949      -279.5684
   6   2.0000     -10.273016      -279.5430
   7   2.0000      -1.128600       -30.7108
   8   2.0000      -1.027799       -27.9678
   9   2.0000      -0.891884       -24.2694
  10   2.0000      -0.854741       -23.2587
  11   2.0000      -0.798268       -21.7220
  12   2.0000      -0.733861       -19.9694
  13   2.0000      -0.664825       -18.0908
  14   2.0000      -0.615940       -16.7606
  15   2.0000      -0.611576       -16.6418
  16   2.0000      -0.569789       -15.5047
  17   2.0000      -0.552341       -15.0300
  18   2.0000      -0.526795       -14.3348
  19   2.0000      -0.517815       -14.0905
  20   2.0000      -0.515395       -14.0246
  21   2.0000      -0.476617       -12.9694
  22   2.0000      -0.471201       -12.8220
  23   2.0000      -0.462934       -12.5971
  24   2.0000      -0.425493       -11.5782
  25   2.0000      -0.326557        -8.8861
  26   2.0000      -0.309392        -8.4190
  27   0.0000       0.108636         2.9561
  28   0.0000       0.122496         3.3333
  29   0.0000       0.138487         3.7684
  30   0.0000       0.169564         4.6141
  31   0.0000       0.177751         4.8369

MULLIKEN ATOMIC CHARGES
-----------------------
   0 C :   -0.143788
   1 C :   -0.143773
   2 N :   -0.114435
   3 N :   -0.114429
   4 C :   -0.277525
   5 H :    0.139270
   6 H :    0.139268
   7 C :   -0.274459
   8 C :   -0.274461
   9 H :    0.137045
  10 H :    0.137045
  11 H :    0.140469
  12 H :    0.140468
  13 H :    0.130773
  14 H :    0.130770
  15 H :    0.123884
  16 H :    0.123879
Sum of atomic charges:    0.0000000

LOEWDIN ATOMIC CHARGES
----------------------
   0 C :   -0.234377
   1 C :   -0.234377
   2 N :    0.121947
   3 N :    0.121948
   4 C :   -0.427454
   5 H :    0.135716
   6 H :    0.135716
   7 C :   -0.297698
   8 C :   -0.297698
   9 H :    0.117687
  10 H :    0.117687
  11 H :    0.122074
  12 H :    0.122074
  13 H :    0.115398
  14 H :    0.115397
  15 H :    0.132980
  16 H :    0.132979

  Mayer bond orders larger than 0.100000
B(  0-C ,  1-C ) :   1.0135 B(  0-C ,  2-N ) :   0.9121 B(  0-C ,  5-H ) :   0.9727
B(  0-C , 15-H ) :   0.9631 B(  1-C ,  3-N ) :   0.9121 B(  1-C ,  6-H ) :   0.9727
B(  1-C , 16-H ) :   0.9632 B(  2-N ,  4-C ) :   1.2483 B(  2-N ,  7-C ) :   0.9200
B(  3-N ,  4-C ) :   1.2482 B(  3-N ,  8-C ) :   0.9200 B(  7-C ,  9-H ) :   0.9688
B(  7-C , 11-H ) :   0.9720 B(  7-C , 13-H ) :   0.9700 B(  8-C , 10-H ) :   0.9688
B(  8-C , 12-H ) :   0.9720 B(  8-C , 14-H ) :   0.9700

Dispersion correction           -0.001940677
FINAL SINGLE POINT ENERGY      -306.046298329227

DIPOLE MOMENT
-------------
                                X             Y             Z
Electronic contribution:      0.00001       0.00000       0.44451
Nuclear contribution   :     -0.00001       0.00000      -2.24078
                        -----------------------------------------
Total Dipole Moment    :     -0.00000       0.00000      -1.79628
                        -----------------------------------------
Magnitude (a.u.)       :      1.79628
Magnitude (Debye)      :      4.56578

Dispersion correction in the Hessian             ... Starting D4

VIBRATIONAL FREQUENCIES
-----------------------

Scaling factor for frequencies =  1.000000000  (already applied!)

   0:         0.00 cm**-1
   1:         0.00 cm**-1
   2:         0.00 cm**-1
   3:         0.00 cm**-1
   4:         0.00 cm**-1
   5:         0.00 cm**-1
   6:       116.62 cm**-1
   7:       121.71 cm**-1
   8:       168.62 cm**-1
   9:       202.62 cm**-1
  10:       230.96 cm**-1
  11:       294.21 cm**-1
  12:       422.53 cm**-1
  13:       467.71 cm**-1
  14:       617.87 cm**-1
  15:       648.63 cm**-1
  16:       848.52 cm**-1
  17:       928.78 cm**-1
  18:       962.57 cm**-1
  19:      1019.90 cm**-1
  20:      1096.31 cm**-1
  21:      1100.04 cm**-1
  22:      1112.61 cm**-1
  23:      1153.70 cm**-1
  24:      1172.20 cm**-1
  25:      1208.40 cm**-1
  26:      1246.47 cm**-1
  27:      1256.04 cm**-1
  28:      1324.75 cm**-1
  29:      1337.21 cm**-1
  30:      1353.80 cm**-1
  31:      1439.56 cm**-1
  32:      1454.74 cm**-1
  33:      1472.96 cm**-1
  34:      1473.67 cm**-1
  35:      1481.10 cm**-1
  36:      1486.11 cm**-1
  37:      1506.11 cm**-1
  38:      1517.59 cm**-1
  39:      1543.88 cm**-1
  40:      1554.89 cm**-1
  41:      3041.01 cm**-1
  42:      3043.58 cm**-1
  43:      3054.51 cm**-1
  44:      3057.28 cm**-1
  45:      3104.05 cm**-1
  46:      3104.08 cm**-1
  47:      3118.73 cm**-1
  48:      3128.95 cm**-1
  49:      3174.25 cm**-1
  50:      3174.26 cm**-1

IR SPECTRUM
-----------

 Mode   freq       eps      Int      T**2         TX        TY        TZ
       cm**-1   L/(mol*cm) km/mol    a.u.
----------------------------------------------------------------------------
  6:    116.62   0.003178   16.06  0.008505  ( 0.087003 -0.030584  0.000000)
  7:    121.71   0.000004    0.02  0.000010  ( 0.000020 -0.000008 -0.003158)
  8:    168.62   0.000002    0.01  0.000003  ( 0.000001 -0.000001  0.001771)
  9:    202.62   0.003291   16.63  0.005068  (-0.070750  0.007897  0.000000)
 10:    230.96   0.000036    0.18  0.000049  ( 0.000001  0.000000  0.006995)
 11:    294.21   0.000414    2.09  0.000439  (-0.000000 -0.000000  0.020950)
 12:    422.53   0.001911    9.66  0.001411  (-0.009439  0.036358 -0.000000)
 13:    467.71   0.002849   14.40  0.001901  ( 0.009403  0.042575  0.000000)
 14:    617.87   0.000085    0.43  0.000043  ( 0.000000 -0.000000 -0.006564)
 15:    648.63   0.007432   37.56  0.003575  (-0.002311  0.059751 -0.000000)
 16:    848.52   0.000254    1.28  0.000093  ( 0.004594  0.008498 -0.000000)
 17:    928.78   0.003311   16.73  0.001113  (-0.000000  0.000000 -0.033356)
 18:    962.57   0.000491    2.48  0.000159  (-0.011283  0.005637  0.000000)
 19:   1019.90   0.000027    0.14  0.000008  ( 0.000000 -0.000000 -0.002863)
 20:   1096.31   0.009701   49.03  0.002761  ( 0.011660 -0.051239  0.000000)
 21:   1100.04   0.001018    5.15  0.000289  ( 0.000000 -0.000001 -0.016998)
 22:   1112.61   0.000006    0.03  0.000002  ( 0.000000 -0.000000 -0.001311)
 23:   1153.70   0.001322    6.68  0.000358  (-0.000407 -0.018906  0.000000)
 24:   1172.20   0.000002    0.01  0.000001  (-0.000000  0.000001  0.000796)
 25:   1208.40   0.003128   15.81  0.000808  (-0.028375  0.001615  0.000000)
 26:   1246.47   0.000354    1.79  0.000089  (-0.000000  0.000000 -0.009414)
 27:   1256.04   0.015521   78.43  0.003856  ( 0.014519 -0.060376  0.000000)
 28:   1324.75   0.030857  155.94  0.007269  ( 0.004917 -0.085116  0.000000)
 29:   1337.21   0.000277    1.40  0.000065  ( 0.000000  0.000000 -0.008047)
 30:   1353.80   0.004991   25.22  0.001151  (-0.000000  0.000000  0.033919)
 31:   1439.56   0.024892  125.79  0.005396  (-0.002016  0.073430 -0.000000)
 32:   1454.74   0.000801    4.05  0.000172  ( 0.000000  0.000001  0.013105)
 33:   1472.96   0.011024   55.71  0.002335  ( 0.038434 -0.029297 -0.000000)
 34:   1473.67   0.000115    0.58  0.000024  ( 0.000001  0.000000 -0.004934)
 35:   1481.10   0.016699   84.39  0.003519  (-0.003234 -0.059229 -0.000000)
 36:   1486.11   0.002627   13.28  0.000552  (-0.000000  0.000000 -0.023486)
 37:   1506.11   0.000015    0.08  0.000003  ( 0.001759 -0.000226 -0.000000)
 38:   1517.59   0.001048    5.30  0.000215  ( 0.000000 -0.000000  0.014679)
 39:   1543.88   0.003056   15.44  0.000618  ( 0.000000  0.000001  0.024853)
 40:   1554.89   0.050946  257.46  0.010225  ( 0.004584 -0.101014  0.000000)
 41:   3041.01   0.045458  229.72  0.004665  ( 0.012868  0.067076 -0.000000)
 42:   3043.58   0.000096    0.48  0.000010  ( 0.000000  0.000000 -0.003134)
 43:   3054.51   0.013984   70.67  0.001429  ( 0.025750  0.027670 -0.000000)
 44:   3057.28   0.010818   54.67  0.001104  (-0.000000 -0.000000 -0.033230)
 45:   3104.05   0.000545    2.75  0.000055  ( 0.000617 -0.000125  0.007376)
 46:   3104.08   0.022712  114.78  0.002283  (-0.046818  0.009562  0.000097)
 47:   3118.73   0.004292   21.69  0.000429  ( 0.000001 -0.000000  0.020722)
 48:   3128.95   0.008079   40.83  0.000806  ( 0.027504 -0.007023 -0.000001)
 49:   3174.25   0.000290    1.47  0.000029  ( 0.001834  0.004974  0.000660)
 50:   3174.26   0.006755   34.14  0.000664  ( 0.000047  0.000127 -0.025770)

--------------------------
THERMOCHEMISTRY AT 298.15K
--------------------------

Temperature         ... 298.15 K
Pressure            ... 1.00 atm
Total Mass          ... 98.15 AMU

Throughout the following assumptions are being made:
  (1) The electronic state is orbitally nondegenerate
  (2) There are no thermally accessible electronically excited states
  (3) Hindered rotations indicated by low frequency modes are not
      treated as such but are treated as vibrations and this may
      cause some error
  (4) All equations used are the standard statistical mechanics
      equations for an ideal gas
  (5) All vibrations are strictly harmonic

freq.     116.62  E(vib)   ...       0.44
freq.     121.71  E(vib)   ...       0.44
freq.     168.62  E(vib)   ...       0.38
freq.     202.62  E(vib)   ...       0.35
freq.     230.96  E(vib)   ...       0.32
freq.     294.21  E(vib)   ...       0.27
freq.     422.53  E(vib)   ...       0.18
freq.     467.71  E(vib)   ...       0.16
freq.     617.87  E(vib)   ...       0.09
freq.     648.63  E(vib)   ...       0.08
freq.     848.52  E(vib)   ...       0.04
freq.     928.78  E(vib)   ...       0.03
freq.     962.57  E(vib)   ...       0.03
freq.    1019.90  E(vib)   ...       0.02
freq.    1096.31  E(vib)   ...       0.02
freq.    1100.04  E(vib)   ...       0.02
freq.    1112.61  E(vib)   ...       0.01
freq.    1153.70  E(vib)   ...       0.01
freq.    1172.20  E(vib)   ...       0.01
freq.    1208.40  E(vib)   ...       0.01
freq.    1246.47  E(vib)   ...       0.01
freq.    1256.04  E(vib)   ...       0.01
freq.    1324.75  E(vib)   ...       0.01
freq.    1337.21  E(vib)   ...       0.01
freq.    1353.80  E(vib)   ...       0.01
freq.    1439.56  E(vib)   ...       0.00
freq.    1454.74  E(vib)   ...       0.00
freq.    1472.96  E(vib)   ...       0.00
freq.    1473.67  E(vib)   ...       0.00
freq.    1481.10  E(vib)   ...       0.00
freq.    1486.11  E(vib)   ...       0.00
freq.    1506.11  E(vib)   ...       0.00
freq.    1517.59  E(vib)   ...       0.00
freq.    1543.88  E(vib)   ...       0.00
freq.    1554.89  E(vib)   ...       0.00
freq.    3041.01  E(vib)   ...       0.00
freq.    3043.58  E(vib)   ...       0.00
freq.    3054.51  E(vib)   ...       0.00
freq.    3057.28  E(vib)   ...       0.00
freq.    3104.05  E(vib)   ...       0.00
freq.    3104.08  E(vib)   ...       0.00
freq.    3118.73  E(vib)   ...       0.00
freq.    3128.95  E(vib)   ...       0.00
freq.    3174.25  E(vib)   ...       0.00
freq.    3174.26  E(vib)   ...       0.00

------------
INNER ENERGY
------------

The inner energy is: U= E(el) + E(ZPE) + E(vib) + E(rot) + E(trans)
    E(el)   - is the total energy from the electronic structure calculation
              = E(kin-el) + E(nuc-el) + E(el-el) + E(nuc-nuc)
    E(ZPE)  - the the zero temperature vibrational energy from the frequency calculation
    E(vib)  - the the finite temperature correction to E(ZPE) due to population
              of excited vibrational states
    E(rot)  - is the rotational thermal energy
    E(trans)- is the translational thermal energy

Summary of contributions to the inner energy U:
Electronic energy                ...   -306.04629833 Eh
Zero point energy                ...      0.15114303 Eh      94.84 kcal/mol
Thermal vibrational correction   ...      0.00475629 Eh       2.98 kcal/mol
Thermal rotational correction    ...      0.00141627 Eh       0.89 kcal/mol
Thermal translational correction ...      0.00141627 Eh       0.89 kcal/mol
-----------------------------------------------------------------------
Total thermal energy                   -305.88756646 Eh

Summary of corrections to the electronic energy:
(perhaps to be used in another calculation)
Total thermal correction                  0.00758883 Eh       4.76 kcal/mol
Non-thermal (ZPE) correction              0.15114303 Eh      94.84 kcal/mol
-----------------------------------------------------------------------
Total correction                          0.15873187 Eh      99.61 kcal/mol

--------
ENTHALPY
--------

The enthalpy is H = U + kB*T
                kB is Boltzmann's constant
Total free energy                 ...   -305.88756646 Eh
Thermal Enthalpy correction       ...      0.00094421 Eh       0.59 kcal/mol
-----------------------------------------------------------------------
Total Enthalpy                    ...   -305.88662225 Eh

Note: Rotational entropy computed according to Herzberg
Infrared and Raman Spectra, Chapter V,1, Van Nostrand Reinhold, 1945
Point Group:  C2, Symmetry Number:   2
Rotational constants in cm-1:     0.201727     0.067769     0.052845

Vibrational entropy computed according to the QRRHO of S. Grimme
Chem.Eur.J. 2012 18 9955

-------
ENTROPY
-------

The entropy contributions are T*S = T*(S(el)+S(vib)+S(rot)+S(trans))
     S(el)   - electronic entropy
     S(vib)  - vibrational entropy
     S(rot)  - rotational entropy
     S(trans)- translational entropy
The entropies will be listed as multiplied by the temperature to get
units of energy

Electronic entropy                ...      0.00000000 Eh      0.00 kcal/mol
Vibrational entropy               ...      0.00822790 Eh      5.16 kcal/mol
Rotational entropy                ...      0.01227092 Eh      7.70 kcal/mol
Translational entropy             ...      0.01884478 Eh     11.83 kcal/mol
-----------------------------------------------------------------------
Final entropy term                ...      0.03934360 Eh     24.69 kcal/mol

In case the symmetry of your molecule has not been determined correctly
or in case you have a reason to use a different symmetry number we print
out the resulting rotational entropy values for sn=1,12 :
 --------------------------------------------------------
|  sn= 1 | S(rot)=       0.01292538 Eh      8.11 kcal/mol|
|  sn= 2 | S(rot)=       0.01227092 Eh      7.70 kcal/mol|
|  sn= 3 | S(rot)=       0.01188809 Eh      7.46 kcal/mol|
|  sn= 4 | S(rot)=       0.01161647 Eh      7.29 kcal/mol|
|  sn= 5 | S(rot)=       0.01140578 Eh      7.16 kcal/mol|
|  sn= 6 | S(rot)=       0.01123364 Eh      7.05 kcal/mol|
|  sn= 7 | S(rot)=       0.01108809 Eh      6.96 kcal/mol|
|  sn= 8 | S(rot)=       0.01096201 Eh      6.88 kcal/mol|
|  sn= 9 | S(rot)=       0.01085080 Eh      6.81 kcal/mol|
|  sn=10 | S(rot)=       0.01075132 Eh      6.75 kcal/mol|
|  sn=11 | S(rot)=       0.01066133 Eh      6.69 kcal/mol|
|  sn=12 | S(rot)=       0.01057918 Eh      6.64 kcal/mol|
 --------------------------------------------------------

-------------------
GIBBS FREE ENERGY
-------------------

The Gibbs free energy is G = H - T*S

Total enthalpy                    ...   -305.88662225 Eh
Total entropy correction          ...     -0.03934360 Eh    -24.69 kcal/mol

                             ****ORCA TERMINATED NORMALLY****
TOTAL RUN TIME: 0 days 0 hours 23 minutes 5 seconds 900 msec
