                         Program Version 5.0.4 -  RELEASE  -
|  1> # ORCAForces - ../2023_04/pKa_prediction/extra_carbenes/Gas/10+_Gas.inp
|  2> # Basic Mode
|  3> #
|  4> ! Opt FREQ wB97X D4 Def2-SVP SlowConv TightSCF DEFGRID2 Def2/J RIJCOSX
|  5>
|  6> %maxcore 4500
|  7>
|  8> %PAL NPROCS 4 END
|  9>
| 10> %geom
| 11> Maxiter 150
| 12> END
| 13>
| 14> * xyzfile 1 1 10+.xyz
| 15>
| 16>                          ****END OF INPUT****
 Total Charge           Charge          ....    1
 Multiplicity           Mult            ....    1
 Number of Electrons    NEL             ....   62
Dispersion correction           -0.002455062
FINAL SINGLE POINT ENERGY      -345.427266043800
Dispersion correction            ... Starting D4
Dispersion correction           -0.002459688
FINAL SINGLE POINT ENERGY      -345.428117131934
Dispersion correction            ... Starting D4
Dispersion correction           -0.002460283
FINAL SINGLE POINT ENERGY      -345.428137391100
Dispersion correction            ... Starting D4
Dispersion correction           -0.002460405
FINAL SINGLE POINT ENERGY      -345.428144208419
Dispersion correction            ... Starting D4
                    ***********************HURRAY********************

CARTESIAN COORDINATES (ANGSTROEM)
---------------------------------
  C     -0.070053    1.114258    1.250207
  C     -0.066884   -0.957557   -0.000000
  C     -0.070053    1.114258   -1.250208
  C      0.555455    1.711280   -0.000000
  H     -1.107981    1.460480    1.392756
  H     -0.065587   -2.053109   -0.000000
  H      0.499316    1.397592   -2.147162
  H      1.640452    1.520020   -0.000000
  N     -0.069101   -0.350046    1.166155
  N     -0.069102   -0.350046   -1.166155
  H     -1.107981    1.460481   -1.392757
  H      0.419216    2.801387    0.000000
  H      0.499316    1.397592    2.147162
  C     -0.104031   -1.102252    2.415663
  H     -0.150775   -2.178590    2.206926
  H      0.798300   -0.890795    3.007783
  H     -0.991355   -0.815550    2.998909
  C     -0.104031   -1.102252   -2.415663
  H      0.798300   -0.890795   -3.007782
  H     -0.150775   -2.178589   -2.206925
  H     -0.991355   -0.815551   -2.998909

 Multiplicity           Mult            ....    1
 Number of Electrons    NEL             ....   62
 Basis Dimension        Dim             ....  177

ORBITAL ENERGIES
----------------

  NO   OCC          E(Eh)            E(eV)
   0   2.0000     -14.638337      -398.3294
   1   2.0000     -14.638335      -398.3293
   2   2.0000     -10.556547      -287.2582
   3   2.0000     -10.477642      -285.1111
   4   2.0000     -10.477627      -285.1107
   5   2.0000     -10.470265      -284.9104
   6   2.0000     -10.470252      -284.9100
   7   2.0000     -10.439443      -284.0717
   8   2.0000      -1.319364       -35.9017
   9   2.0000      -1.241261       -33.7764
  10   2.0000      -1.099001       -29.9053
  11   2.0000      -1.041590       -28.3431
  12   2.0000      -1.008558       -27.4443
  13   2.0000      -0.958787       -26.0899
  14   2.0000      -0.944544       -25.7023
  15   2.0000      -0.836501       -22.7624
  16   2.0000      -0.811692       -22.0873
  17   2.0000      -0.804505       -21.8917
  18   2.0000      -0.777895       -21.1676
  19   2.0000      -0.745259       -20.2795
  20   2.0000      -0.730671       -19.8826
  21   2.0000      -0.720295       -19.6002
  22   2.0000      -0.716997       -19.5105
  23   2.0000      -0.681864       -18.5545
  24   2.0000      -0.676790       -18.4164
  25   2.0000      -0.667735       -18.1700
  26   2.0000      -0.646267       -17.5858
  27   2.0000      -0.627804       -17.0834
  28   2.0000      -0.620405       -16.8821
  29   2.0000      -0.603560       -16.4237
  30   2.0000      -0.511874       -13.9288
  31   0.0000      -0.094295        -2.5659
  32   0.0000      -0.019272        -0.5244
  33   0.0000       0.008233         0.2240
  34   0.0000       0.014604         0.3974
  35   0.0000       0.038575         1.0497

MULLIKEN ATOMIC CHARGES
-----------------------
   0 C :    0.100848
   1 C :    0.241308
   2 C :    0.100850
   3 C :   -0.095701
   4 H :    0.087576
   5 H :    0.098697
   6 H :    0.085239
   7 H :    0.078696
   8 N :   -0.315025
   9 N :   -0.315025
  10 H :    0.087576
  11 H :    0.096178
  12 H :    0.085239
  13 C :    0.063337
  14 H :    0.079998
  15 H :    0.095173
  16 H :    0.093263
  17 C :    0.063338
  18 H :    0.095173
  19 H :    0.079998
  20 H :    0.093263
Sum of atomic charges:    1.0000000

LOEWDIN ATOMIC CHARGES
----------------------
   0 C :    0.054114
   1 C :    0.160803
   2 C :    0.054114
   3 C :   -0.040847
   4 H :    0.045381
   5 H :    0.057651
   6 H :    0.051101
   7 H :    0.046975
   8 N :    0.011879
   9 N :    0.011879
  10 H :    0.045381
  11 H :    0.062600
  12 H :    0.051101
  13 C :    0.050089
  14 H :    0.046246
  15 H :    0.048302
  16 H :    0.049298
  17 C :    0.050089
  18 H :    0.048302
  19 H :    0.046246
  20 H :    0.049298

  Mayer bond orders larger than 0.100000
B(  0-C ,  3-C ) :   1.0669 B(  0-C ,  4-H ) :   0.9575 B(  0-C ,  8-N ) :   0.8922
B(  0-C , 12-H ) :   0.9516 B(  1-C ,  5-H ) :   0.9625 B(  1-C ,  8-N ) :   1.4305
B(  1-C ,  9-N ) :   1.4305 B(  2-C ,  3-C ) :   1.0669 B(  2-C ,  6-H ) :   0.9516
B(  2-C ,  9-N ) :   0.8922 B(  2-C , 10-H ) :   0.9575 B(  3-C ,  7-H ) :   0.9483
B(  3-C , 11-H ) :   0.9430 B(  8-N , 13-C ) :   0.9106 B(  9-N , 17-C ) :   0.9106
B( 13-C , 14-H ) :   0.9707 B( 13-C , 15-H ) :   0.9722 B( 13-C , 16-H ) :   0.9710
B( 17-C , 18-H ) :   0.9722 B( 17-C , 19-H ) :   0.9707 B( 17-C , 20-H ) :   0.9710

Dispersion correction           -0.002460346
FINAL SINGLE POINT ENERGY      -345.428144648213

DIPOLE MOMENT
-------------
                                X             Y             Z
Electronic contribution:     -0.17464      -0.63882       0.00000
Nuclear contribution   :      0.10004       0.22426       0.00000
                        -----------------------------------------
Total Dipole Moment    :     -0.07461      -0.41456       0.00000
                        -----------------------------------------
Magnitude (a.u.)       :      0.42122
Magnitude (Debye)      :      1.07066

Dispersion correction in the Hessian             ... Starting D4

VIBRATIONAL FREQUENCIES
-----------------------

Scaling factor for frequencies =  1.000000000  (already applied!)

   0:         0.00 cm**-1
   1:         0.00 cm**-1
   2:         0.00 cm**-1
   3:         0.00 cm**-1
   4:         0.00 cm**-1
   5:         0.00 cm**-1
   6:       121.22 cm**-1
   7:       159.01 cm**-1
   8:       181.24 cm**-1
   9:       208.02 cm**-1
  10:       274.21 cm**-1
  11:       311.71 cm**-1
  12:       317.37 cm**-1
  13:       423.72 cm**-1
  14:       468.12 cm**-1
  15:       473.16 cm**-1
  16:       533.06 cm**-1
  17:       622.69 cm**-1
  18:       805.59 cm**-1
  19:       881.54 cm**-1
  20:       914.52 cm**-1
  21:       942.04 cm**-1
  22:      1009.53 cm**-1
  23:      1044.35 cm**-1
  24:      1074.14 cm**-1
  25:      1116.48 cm**-1
  26:      1126.14 cm**-1
  27:      1136.43 cm**-1
  28:      1140.93 cm**-1
  29:      1161.99 cm**-1
  30:      1203.42 cm**-1
  31:      1243.34 cm**-1
  32:      1280.02 cm**-1
  33:      1285.33 cm**-1
  34:      1339.69 cm**-1
  35:      1357.64 cm**-1
  36:      1412.15 cm**-1
  37:      1414.56 cm**-1
  38:      1429.48 cm**-1
  39:      1455.27 cm**-1
  40:      1460.34 cm**-1
  41:      1462.03 cm**-1
  42:      1463.54 cm**-1
  43:      1464.25 cm**-1
  44:      1480.05 cm**-1
  45:      1481.43 cm**-1
  46:      1492.28 cm**-1
  47:      1496.65 cm**-1
  48:      1587.62 cm**-1
  49:      1812.99 cm**-1
  50:      3082.24 cm**-1
  51:      3082.59 cm**-1
  52:      3087.68 cm**-1
  53:      3090.07 cm**-1
  54:      3106.13 cm**-1
  55:      3165.88 cm**-1
  56:      3167.11 cm**-1
  57:      3183.38 cm**-1
  58:      3188.81 cm**-1
  59:      3188.90 cm**-1
  60:      3213.18 cm**-1
  61:      3213.26 cm**-1
  62:      3229.89 cm**-1

IR SPECTRUM
-----------

 Mode   freq       eps      Int      T**2         TX        TY        TZ
       cm**-1   L/(mol*cm) km/mol    a.u.
----------------------------------------------------------------------------
  6:    121.22   0.000003    0.01  0.000007  (-0.000000 -0.000000  0.002577)
  7:    159.01   0.000521    2.63  0.001022  (-0.031899 -0.002009 -0.000000)
  8:    181.24   0.000020    0.10  0.000035  (-0.000000  0.000000 -0.005898)
  9:    208.02   0.000331    1.67  0.000497  (-0.022263 -0.001251 -0.000000)
 10:    274.21   0.000029    0.15  0.000033  ( 0.005665  0.000809 -0.000000)
 11:    311.71   0.000000    0.00  0.000000  (-0.000000  0.000000 -0.000643)
 12:    317.37   0.000010    0.05  0.000010  ( 0.001691  0.002623  0.000000)
 13:    423.72   0.000005    0.02  0.000003  (-0.000000 -0.000000 -0.001866)
 14:    468.12   0.002915   14.73  0.001943  ( 0.044075 -0.000612 -0.000001)
 15:    473.16   0.000774    3.91  0.000511  (-0.000002  0.000000 -0.022597)
 16:    533.06   0.001534    7.75  0.000898  ( 0.029172  0.006871  0.000000)
 17:    622.69   0.000080    0.40  0.000040  ( 0.003885 -0.004997  0.000000)
 18:    805.59   0.000147    0.74  0.000057  (-0.005165 -0.005508  0.000000)
 19:    881.54   0.000487    2.46  0.000172  (-0.000000  0.000000  0.013125)
 20:    914.52   0.000044    0.22  0.000015  ( 0.000000 -0.000000  0.003888)
 21:    942.04   0.000216    1.09  0.000072  (-0.007003  0.004759  0.000000)
 22:   1009.53   0.000317    1.60  0.000098  (-0.008878  0.004369  0.000000)
 23:   1044.35   0.003675   18.57  0.001098  ( 0.007468 -0.032284  0.000000)
 24:   1074.14   0.000479    2.42  0.000139  (-0.000000 -0.000000  0.011791)
 25:   1116.48   0.000828    4.18  0.000231  ( 0.002666  0.014979 -0.000000)
 26:   1126.14   0.000950    4.80  0.000263  (-0.015322 -0.005325  0.000000)
 27:   1136.43   0.001206    6.10  0.000331  (-0.000000 -0.000000 -0.018200)
 28:   1140.93   0.000038    0.19  0.000010  ( 0.000000 -0.000000 -0.003240)
 29:   1161.99   0.000263    1.33  0.000071  (-0.008078 -0.002294 -0.000000)
 30:   1203.42   0.010641   53.78  0.002759  ( 0.000000 -0.000000  0.052530)
 31:   1243.34   0.005282   26.69  0.001326  ( 0.000000 -0.000000 -0.036411)
 32:   1280.02   0.000131    0.66  0.000032  (-0.000000 -0.000001  0.005661)
 33:   1285.33   0.006308   31.88  0.001532  ( 0.016897  0.035299  0.000000)
 34:   1339.69   0.001875    9.48  0.000437  ( 0.006481 -0.019870  0.000000)
 35:   1357.64   0.005445   27.52  0.001252  ( 0.000000 -0.000000 -0.035378)
 36:   1412.15   0.005056   25.55  0.001117  (-0.000000  0.000000 -0.033425)
 37:   1414.56   0.000422    2.13  0.000093  ( 0.000000 -0.000000  0.009647)
 38:   1429.48   0.003093   15.63  0.000675  (-0.003623  0.025731  0.000000)
 39:   1455.27   0.007400   37.39  0.001587  ( 0.000000  0.000000 -0.039834)
 40:   1460.34   0.006959   35.17  0.001487  (-0.038026 -0.006407 -0.000001)
 41:   1462.03   0.000205    1.03  0.000044  (-0.000001  0.000001 -0.006608)
 42:   1463.54   0.002278   11.51  0.000486  (-0.021895 -0.002499  0.000000)
 43:   1464.25   0.001978   10.00  0.000422  ( 0.013447 -0.015519 -0.000000)
 44:   1480.05   0.000068    0.34  0.000014  ( 0.000000  0.000000  0.003792)
 45:   1481.43   0.004967   25.10  0.001046  (-0.007298 -0.031513 -0.000000)
 46:   1492.28   0.000023    0.12  0.000005  (-0.000310 -0.002183  0.000000)
 47:   1496.65   0.001135    5.73  0.000237  (-0.000000  0.000000  0.015382)
 48:   1587.62   0.006214   31.40  0.001221  (-0.004644  0.034638  0.000000)
 49:   1812.99   0.116724  589.88  0.020091  ( 0.000000 -0.000000  0.141744)
 50:   3082.24   0.003043   15.38  0.000308  (-0.000000  0.000000  0.017552)
 51:   3082.59   0.000698    3.53  0.000071  ( 0.000202 -0.008402  0.000000)
 52:   3087.68   0.001415    7.15  0.000143  (-0.000001  0.000001  0.011959)
 53:   3090.07   0.001236    6.25  0.000125  (-0.008164  0.007630 -0.000002)
 54:   3106.13   0.000794    4.01  0.000080  ( 0.008918  0.000472  0.000000)
 55:   3165.88   0.000140    0.71  0.000014  (-0.000000 -0.000000  0.003712)
 56:   3167.11   0.000342    1.73  0.000034  ( 0.005754  0.000750  0.000000)
 57:   3183.38   0.000164    0.83  0.000016  ( 0.004003 -0.000280  0.000000)
 58:   3188.81   0.000004    0.02  0.000000  ( 0.000000  0.000000  0.000654)
 59:   3188.90   0.000294    1.49  0.000029  ( 0.005357  0.000304 -0.000000)
 60:   3213.18   0.000275    1.39  0.000027  ( 0.000468  0.005146  0.000008)
 61:   3213.26   0.000129    0.65  0.000013  (-0.000001 -0.000012  0.003546)
 62:   3229.89   0.000164    0.83  0.000016  (-0.000668  0.003927 -0.000000)

--------------------------
THERMOCHEMISTRY AT 298.15K
--------------------------

Temperature         ... 298.15 K
Pressure            ... 1.00 atm
Total Mass          ... 113.18 AMU

Throughout the following assumptions are being made:
  (1) The electronic state is orbitally nondegenerate
  (2) There are no thermally accessible electronically excited states
  (3) Hindered rotations indicated by low frequency modes are not
      treated as such but are treated as vibrations and this may
      cause some error
  (4) All equations used are the standard statistical mechanics
      equations for an ideal gas
  (5) All vibrations are strictly harmonic

freq.     121.22  E(vib)   ...       0.44
freq.     159.01  E(vib)   ...       0.39
freq.     181.24  E(vib)   ...       0.37
freq.     208.02  E(vib)   ...       0.34
freq.     274.21  E(vib)   ...       0.28
freq.     311.71  E(vib)   ...       0.25
freq.     317.37  E(vib)   ...       0.25
freq.     423.72  E(vib)   ...       0.18
freq.     468.12  E(vib)   ...       0.16
freq.     473.16  E(vib)   ...       0.15
freq.     533.06  E(vib)   ...       0.13
freq.     622.69  E(vib)   ...       0.09
freq.     805.59  E(vib)   ...       0.05
freq.     881.54  E(vib)   ...       0.04
freq.     914.52  E(vib)   ...       0.03
freq.     942.04  E(vib)   ...       0.03
freq.    1009.53  E(vib)   ...       0.02
freq.    1044.35  E(vib)   ...       0.02
freq.    1074.14  E(vib)   ...       0.02
freq.    1116.48  E(vib)   ...       0.01
freq.    1126.14  E(vib)   ...       0.01
freq.    1136.43  E(vib)   ...       0.01
freq.    1140.93  E(vib)   ...       0.01
freq.    1161.99  E(vib)   ...       0.01
freq.    1203.42  E(vib)   ...       0.01
freq.    1243.34  E(vib)   ...       0.01
freq.    1280.02  E(vib)   ...       0.01
freq.    1285.33  E(vib)   ...       0.01
freq.    1339.69  E(vib)   ...       0.01
freq.    1357.64  E(vib)   ...       0.01
freq.    1412.15  E(vib)   ...       0.00
freq.    1414.56  E(vib)   ...       0.00
freq.    1429.48  E(vib)   ...       0.00
freq.    1455.27  E(vib)   ...       0.00
freq.    1460.34  E(vib)   ...       0.00
freq.    1462.03  E(vib)   ...       0.00
freq.    1463.54  E(vib)   ...       0.00
freq.    1464.25  E(vib)   ...       0.00
freq.    1480.05  E(vib)   ...       0.00
freq.    1481.43  E(vib)   ...       0.00
freq.    1492.28  E(vib)   ...       0.00
freq.    1496.65  E(vib)   ...       0.00
freq.    1587.62  E(vib)   ...       0.00
freq.    1812.99  E(vib)   ...       0.00
freq.    3082.24  E(vib)   ...       0.00
freq.    3082.59  E(vib)   ...       0.00
freq.    3087.68  E(vib)   ...       0.00
freq.    3090.07  E(vib)   ...       0.00
freq.    3106.13  E(vib)   ...       0.00
freq.    3165.88  E(vib)   ...       0.00
freq.    3167.11  E(vib)   ...       0.00
freq.    3183.38  E(vib)   ...       0.00
freq.    3188.81  E(vib)   ...       0.00
freq.    3188.90  E(vib)   ...       0.00
freq.    3213.18  E(vib)   ...       0.00
freq.    3213.26  E(vib)   ...       0.00
freq.    3229.89  E(vib)   ...       0.00

------------
INNER ENERGY
------------

The inner energy is: U= E(el) + E(ZPE) + E(vib) + E(rot) + E(trans)
    E(el)   - is the total energy from the electronic structure calculation
              = E(kin-el) + E(nuc-el) + E(el-el) + E(nuc-nuc)
    E(ZPE)  - the the zero temperature vibrational energy from the frequency calculation
    E(vib)  - the the finite temperature correction to E(ZPE) due to population
              of excited vibrational states
    E(rot)  - is the rotational thermal energy
    E(trans)- is the translational thermal energy

Summary of contributions to the inner energy U:
Electronic energy                ...   -345.42814465 Eh
Zero point energy                ...      0.19607824 Eh     123.04 kcal/mol
Thermal vibrational correction   ...      0.00543117 Eh       3.41 kcal/mol
Thermal rotational correction    ...      0.00141627 Eh       0.89 kcal/mol
Thermal translational correction ...      0.00141627 Eh       0.89 kcal/mol
-----------------------------------------------------------------------
Total thermal energy                   -345.22380270 Eh

Summary of corrections to the electronic energy:
(perhaps to be used in another calculation)
Total thermal correction                  0.00826371 Eh       5.19 kcal/mol
Non-thermal (ZPE) correction              0.19607824 Eh     123.04 kcal/mol
-----------------------------------------------------------------------
Total correction                          0.20434194 Eh     128.23 kcal/mol

--------
ENTHALPY
--------

The enthalpy is H = U + kB*T
                kB is Boltzmann's constant
Total free energy                 ...   -345.22380270 Eh
Thermal Enthalpy correction       ...      0.00094421 Eh       0.59 kcal/mol
-----------------------------------------------------------------------
Total Enthalpy                    ...   -345.22285849 Eh

Note: Rotational entropy computed according to Herzberg
Infrared and Raman Spectra, Chapter V,1, Van Nostrand Reinhold, 1945
Point Group:  Cs, Symmetry Number:   1
Rotational constants in cm-1:     0.107155     0.058820     0.040027

Vibrational entropy computed according to the QRRHO of S. Grimme
Chem.Eur.J. 2012 18 9955

-------
ENTROPY
-------

The entropy contributions are T*S = T*(S(el)+S(vib)+S(rot)+S(trans))
     S(el)   - electronic entropy
     S(vib)  - vibrational entropy
     S(rot)  - rotational entropy
     S(trans)- translational entropy
The entropies will be listed as multiplied by the temperature to get
units of energy

Electronic entropy                ...      0.00000000 Eh      0.00 kcal/mol
Vibrational entropy               ...      0.00899934 Eh      5.65 kcal/mol
Rotational entropy                ...      0.01342205 Eh      8.42 kcal/mol
Translational entropy             ...      0.01904664 Eh     11.95 kcal/mol
-----------------------------------------------------------------------
Final entropy term                ...      0.04146803 Eh     26.02 kcal/mol

In case the symmetry of your molecule has not been determined correctly
or in case you have a reason to use a different symmetry number we print
out the resulting rotational entropy values for sn=1,12 :
 --------------------------------------------------------
|  sn= 1 | S(rot)=       0.01342205 Eh      8.42 kcal/mol|
|  sn= 2 | S(rot)=       0.01276759 Eh      8.01 kcal/mol|
|  sn= 3 | S(rot)=       0.01238476 Eh      7.77 kcal/mol|
|  sn= 4 | S(rot)=       0.01211314 Eh      7.60 kcal/mol|
|  sn= 5 | S(rot)=       0.01190245 Eh      7.47 kcal/mol|
|  sn= 6 | S(rot)=       0.01173031 Eh      7.36 kcal/mol|
|  sn= 7 | S(rot)=       0.01158476 Eh      7.27 kcal/mol|
|  sn= 8 | S(rot)=       0.01145868 Eh      7.19 kcal/mol|
|  sn= 9 | S(rot)=       0.01134747 Eh      7.12 kcal/mol|
|  sn=10 | S(rot)=       0.01124799 Eh      7.06 kcal/mol|
|  sn=11 | S(rot)=       0.01115800 Eh      7.00 kcal/mol|

                             ****ORCA TERMINATED NORMALLY****
TOTAL RUN TIME: 0 days 0 hours 6 minutes 25 seconds 346 msec
