                         Program Version 5.0.3 -  RELEASE  -
|  1> ! Opt FREQ wB97X D4 Def2-SVP SlowConv TightSCF DEFGRID2 Def2/J RIJCOSX
|  2> %MAXCORE 4000
|  3> %scf MaxIter 20000 end
|  4> %geom
|  5> MaxIter 500
|  6> end
|  7> %PAL NPROCS 8 END
|  8>
|  9> * xyz 1 1
| 10> C 0.02621 0.70441 -0.63779
| 11> C 0.03616 -0.6728 -0.6579
| 12> N 0.05677 1.11085 0.64694
| 13> N 0.09755 -1.10405 0.68738
| 14> C 0.04635 -0.0336 1.42806
| 15> C -0.21249 2.47073 1.12886
| 16> C 0.02003 -2.47901 1.19614
| 17> H -1.26118 2.72022 0.81472
| 18> H -0.73283 -2.54359 2.0584
| 19> H -0.30308 -3.19561 0.38947
| 20> H 0.49771 3.15864 0.65899
| 21> H -0.14695 2.54409 2.2243
| 22> H 1.04689 -2.7931 1.58472
| 23> H -0.07689 -0.0425 2.52864
| 24> C 0.04609 1.62573 -1.80205
| 25> C -0.06791 -1.60602 -1.81411
| 26> H 1.10105 1.77817 -2.12443
| 27> H 0.97835 -1.76015 -2.04426
| 28> H -0.50505 -2.59682 -1.62278
| 29> H -0.40987 2.6086 -1.49888
| 30> H -0.56044 1.20083 -2.63472
| 31> H -0.52816 -1.19902 -2.70468
| 32> **                         ****END OF INPUT****
 Total Charge           Charge          ....    1
 Multiplicity           Mult            ....    1
 Number of Electrons    NEL             ....   68
Dispersion correction           -0.002852211
FINAL SINGLE POINT ENERGY      -383.485380243981
Dispersion correction            ... Starting D4
Dispersion correction           -0.002855873
FINAL SINGLE POINT ENERGY      -383.501471974835
Dispersion correction            ... Starting D4
Dispersion correction           -0.002856103
FINAL SINGLE POINT ENERGY      -383.505231955246
Dispersion correction            ... Starting D4
FINAL SINGLE POINT ENERGY      -383.506259786843
FINAL SINGLE POINT ENERGY      -383.506721774067
FINAL SINGLE POINT ENERGY      -383.507157911727
FINAL SINGLE POINT ENERGY      -383.507600624530
FINAL SINGLE POINT ENERGY      -383.508022616752
FINAL SINGLE POINT ENERGY      -383.508401151373
FINAL SINGLE POINT ENERGY      -383.508735469301
FINAL SINGLE POINT ENERGY      -383.508957318816
FINAL SINGLE POINT ENERGY      -383.509059390938
FINAL SINGLE POINT ENERGY      -383.509099594622
FINAL SINGLE POINT ENERGY      -383.509131138663
FINAL SINGLE POINT ENERGY      -383.509157856377
FINAL SINGLE POINT ENERGY      -383.509187287488
FINAL SINGLE POINT ENERGY      -383.509202875496
Dispersion correction           -0.002857839
FINAL SINGLE POINT ENERGY      -383.509210108576
Dispersion correction            ... Starting D4
Dispersion correction           -0.002857863
FINAL SINGLE POINT ENERGY      -383.509211853500
Dispersion correction            ... Starting D4
                    ***********************HURRAY********************

CARTESIAN COORDINATES (ANGSTROEM)
---------------------------------
  C     -0.052166    0.678754   -0.661482
  C      0.000983   -0.691185   -0.656058
  N     -0.097104    1.078371    0.666405
  N     -0.011576   -1.082857    0.674871
  C     -0.071009    0.000099    1.444104
  C     -0.164713    2.459103    1.130517
  C      0.033471   -2.461159    1.148888
  H     -1.057888    2.946063    0.717353
  H      0.020711   -2.464990    2.245340
  H     -0.839825   -3.012774    0.776176
  H      0.733298    3.005973    0.813593
  H     -0.224647    2.467758    2.225368
  H      0.953786   -2.945889    0.797165
  H     -0.095441    0.003505    2.533445
  C     -0.065746    1.654689   -1.786712
  C      0.061635   -1.674570   -1.773181
  H      0.798729    2.334526   -1.740665
  H      0.977009   -2.283983   -1.725523
  H     -0.805665   -2.352262   -1.760159
  H     -0.983354    2.262746   -1.782345
  H     -0.022123    1.123653   -2.745639
  H      0.059946   -1.149569   -2.736441

 Multiplicity           Mult            ....    1
 Number of Electrons    NEL             ....   68
 Basis Dimension        Dim             ....  191

ORBITAL ENERGIES
----------------

  NO   OCC          E(Eh)            E(eV)
   0   2.0000     -14.657493      -398.8506
   1   2.0000     -14.657474      -398.8501
   2   2.0000     -10.531123      -286.5664
   3   2.0000     -10.479077      -285.1502
   4   2.0000     -10.478584      -285.1368
   5   2.0000     -10.476887      -285.0906
   6   2.0000     -10.476861      -285.0899
   7   2.0000     -10.427329      -283.7420
   8   2.0000     -10.427275      -283.7406
   9   2.0000      -1.360253       -37.0144
  10   2.0000      -1.240396       -33.7529
  11   2.0000      -1.100573       -29.9481
  12   2.0000      -1.059926       -28.8421
  13   2.0000      -1.019830       -27.7510
  14   2.0000      -0.972941       -26.4751
  15   2.0000      -0.970962       -26.4212
  16   2.0000      -0.880350       -23.9555
  17   2.0000      -0.871621       -23.7180
  18   2.0000      -0.812129       -22.0992
  19   2.0000      -0.791143       -21.5281
  20   2.0000      -0.754045       -20.5186
  21   2.0000      -0.742132       -20.1944
  22   2.0000      -0.730953       -19.8902
  23   2.0000      -0.698777       -19.0147
  24   2.0000      -0.683781       -18.6066
  25   2.0000      -0.682354       -18.5678
  26   2.0000      -0.678483       -18.4625
  27   2.0000      -0.664434       -18.0802
  28   2.0000      -0.657000       -17.8779
  29   2.0000      -0.654917       -17.8212
  30   2.0000      -0.643473       -17.5098
  31   2.0000      -0.639699       -17.4071
  32   2.0000      -0.558989       -15.2109
  33   2.0000      -0.495205       -13.4752
  34   0.0000      -0.085218        -2.3189
  35   0.0000      -0.037906        -1.0315
  36   0.0000      -0.002794        -0.0760
  37   0.0000       0.009217         0.2508
  38   0.0000       0.012397         0.3373

MULLIKEN ATOMIC CHARGES
-----------------------
   0 C :   -0.086189
   1 C :   -0.086506
   2 N :   -0.222847
   3 N :   -0.222727
   4 C :    0.195954
   5 C :    0.069184
   6 C :    0.069170
   7 H :    0.098115
   8 H :    0.089505
   9 H :    0.099227
  10 H :    0.099853
  11 H :    0.089439
  12 H :    0.098757
  13 H :    0.115477
  14 C :    0.073106
  15 C :    0.073243
  16 H :    0.079897
  17 H :    0.080002
  18 H :    0.079870
  19 H :    0.080027
  20 H :    0.063742
  21 H :    0.063701
Sum of atomic charges:    1.0000000

LOEWDIN ATOMIC CHARGES
----------------------
   0 C :   -0.002695
   1 C :   -0.002732
   2 N :    0.086903
   3 N :    0.086936
   4 C :    0.103811
   5 C :    0.053627
   6 C :    0.053648
   7 H :    0.053578
   8 H :    0.053102
   9 H :    0.053728
  10 H :    0.053807
  11 H :    0.053081
  12 H :    0.053671
  13 H :    0.057723
  14 C :   -0.047783
  15 C :   -0.047773
  16 H :    0.055879
  17 H :    0.055773
  18 H :    0.055819
  19 H :    0.055743
  20 H :    0.057080
  21 H :    0.057072

  Mayer bond orders larger than 0.100000
B(  0-C ,  1-C ) :   1.6259 B(  0-C ,  2-N ) :   1.1605 B(  0-C , 14-C ) :   1.0830
B(  1-C ,  3-N ) :   1.1606 B(  1-C , 15-C ) :   1.0829 B(  2-N ,  4-C ) :   1.3526
B(  2-N ,  5-C ) :   0.9040 B(  3-N ,  4-C ) :   1.3526 B(  3-N ,  6-C ) :   0.9040
B(  4-C , 13-H ) :   0.9693 B(  5-C ,  7-H ) :   0.9711 B(  5-C , 10-H ) :   0.9713
B(  5-C , 11-H ) :   0.9707 B(  6-C ,  8-H ) :   0.9707 B(  6-C ,  9-H ) :   0.9712
B(  6-C , 12-H ) :   0.9711 B( 14-C , 16-H ) :   0.9492 B( 14-C , 19-H ) :   0.9494
B( 14-C , 20-H ) :   0.9413 B( 15-C , 17-H ) :   0.9493 B( 15-C , 18-H ) :   0.9493
B( 15-C , 21-H ) :   0.9413

Dispersion correction           -0.002857865
FINAL SINGLE POINT ENERGY      -383.509212168849

DIPOLE MOMENT
-------------
                                X             Y             Z
Electronic contribution:     -0.06035       0.01083       3.26298
Nuclear contribution   :      0.04172      -0.00856      -2.47397
                        -----------------------------------------
Total Dipole Moment    :     -0.01863       0.00227       0.78900
                        -----------------------------------------
Magnitude (a.u.)       :      0.78923
Magnitude (Debye)      :      2.00605

Dispersion correction in the Hessian             ... Starting D4

VIBRATIONAL FREQUENCIES
-----------------------

Scaling factor for frequencies =  1.000000000  (already applied!)

   0:         0.00 cm**-1
   1:         0.00 cm**-1
   2:         0.00 cm**-1
   3:         0.00 cm**-1
   4:         0.00 cm**-1
   5:         0.00 cm**-1
   6:        95.73 cm**-1
   7:       104.03 cm**-1
   8:       138.59 cm**-1
   9:       144.87 cm**-1
  10:       156.00 cm**-1
  11:       185.01 cm**-1
  12:       275.79 cm**-1
  13:       279.00 cm**-1
  14:       292.30 cm**-1
  15:       304.96 cm**-1
  16:       330.30 cm**-1
  17:       540.98 cm**-1
  18:       576.01 cm**-1
  19:       621.81 cm**-1
  20:       648.36 cm**-1
  21:       693.46 cm**-1
  22:       741.35 cm**-1
  23:       848.75 cm**-1
  24:       860.84 cm**-1
  25:       971.96 cm**-1
  26:      1045.78 cm**-1
  27:      1068.37 cm**-1
  28:      1082.04 cm**-1
  29:      1104.64 cm**-1
  30:      1117.39 cm**-1
  31:      1141.81 cm**-1
  32:      1147.23 cm**-1
  33:      1192.50 cm**-1
  34:      1239.13 cm**-1
  35:      1288.08 cm**-1
  36:      1397.14 cm**-1
  37:      1410.02 cm**-1
  38:      1421.86 cm**-1
  39:      1447.01 cm**-1
  40:      1451.28 cm**-1
  41:      1452.98 cm**-1
  42:      1453.93 cm**-1
  43:      1456.01 cm**-1
  44:      1457.79 cm**-1
  45:      1464.43 cm**-1
  46:      1467.30 cm**-1
  47:      1472.22 cm**-1
  48:      1484.79 cm**-1
  49:      1531.69 cm**-1
  50:      1541.89 cm**-1
  51:      1678.73 cm**-1
  52:      1735.31 cm**-1
  53:      3080.68 cm**-1
  54:      3080.99 cm**-1
  55:      3098.95 cm**-1
  56:      3099.09 cm**-1
  57:      3173.21 cm**-1
  58:      3173.65 cm**-1
  59:      3208.97 cm**-1
  60:      3210.73 cm**-1
  61:      3212.79 cm**-1
  62:      3212.89 cm**-1
  63:      3227.09 cm**-1
  64:      3227.21 cm**-1
  65:      3298.70 cm**-1

IR SPECTRUM
-----------

 Mode   freq       eps      Int      T**2         TX        TY        TZ
       cm**-1   L/(mol*cm) km/mol    a.u.
----------------------------------------------------------------------------
  6:     95.73   0.000025    0.13  0.000081  (-0.008923 -0.000778  0.000691)
  7:    104.03   0.000003    0.02  0.000009  (-0.003014  0.000028  0.000383)
  8:    138.59   0.000308    1.56  0.000694  (-0.026340  0.000078 -0.000202)
  9:    144.87   0.000006    0.03  0.000013  (-0.003617 -0.000305 -0.000004)
 10:    156.00   0.000009    0.05  0.000019  (-0.004267 -0.000580 -0.000060)
 11:    185.01   0.001104    5.58  0.001862  ( 0.043090  0.002065  0.001135)
 12:    275.79   0.000079    0.40  0.000090  (-0.001558  0.002241  0.009059)
 13:    279.00   0.000045    0.23  0.000050  ( 0.001071  0.006285 -0.003062)
 14:    292.30   0.000144    0.73  0.000153  (-0.002169 -0.000058 -0.012195)
 15:    304.96   0.001025    5.18  0.001049  ( 0.032358  0.001262  0.000264)
 16:    330.30   0.000001    0.00  0.000001  (-0.000837 -0.000087 -0.000042)
 17:    540.98   0.000209    1.06  0.000121  (-0.000396  0.010984 -0.000087)
 18:    576.01   0.000342    1.73  0.000185  (-0.000526  0.013601 -0.000083)
 19:    621.81   0.000462    2.34  0.000232  ( 0.000397 -0.000066 -0.015228)
 20:    648.36   0.002217   11.21  0.001067  (-0.032632 -0.001341 -0.000764)
 21:    693.46   0.000000    0.00  0.000000  ( 0.000141  0.000030  0.000202)
 22:    741.35   0.000662    3.35  0.000279  ( 0.000318 -0.000090 -0.016692)
 23:    848.75   0.002103   10.63  0.000773  (-0.027767 -0.001351 -0.000752)
 24:    860.84   0.001740    8.79  0.000631  (-0.001176  0.025088 -0.000068)
 25:    971.96   0.000095    0.48  0.000031  ( 0.000012  0.000084  0.005534)
 26:   1045.78   0.000483    2.44  0.000144  (-0.011986 -0.000592 -0.000141)
 27:   1068.37   0.000002    0.01  0.000000  ( 0.000667  0.000139  0.000038)
 28:   1082.04   0.000228    1.15  0.000066  (-0.000106  0.008114  0.000087)
 29:   1104.64   0.000036    0.18  0.000010  ( 0.000138 -0.000582 -0.003147)
 30:   1117.39   0.001809    9.14  0.000505  (-0.001012  0.022450 -0.000239)
 31:   1141.81   0.000001    0.00  0.000000  (-0.000016  0.000378  0.000085)
 32:   1147.23   0.000008    0.04  0.000002  (-0.001377 -0.000324 -0.000199)
 33:   1192.50   0.000036    0.18  0.000009  ( 0.000106  0.000060 -0.003046)
 34:   1239.13   0.010429   52.70  0.002626  (-0.002002  0.051210 -0.000184)
 35:   1288.08   0.000027    0.14  0.000007  ( 0.000204 -0.002569  0.000036)
 36:   1397.14   0.000097    0.49  0.000022  ( 0.000581 -0.000651 -0.004567)
 37:   1410.02   0.001727    8.73  0.000382  (-0.000884  0.019526  0.000357)
 38:   1421.86   0.001297    6.55  0.000285  (-0.001316 -0.000794  0.016799)
 39:   1447.01   0.001199    6.06  0.000259  ( 0.001378 -0.015908 -0.001882)
 40:   1451.28   0.000656    3.31  0.000141  ( 0.003019 -0.002534 -0.011201)
 41:   1452.98   0.000756    3.82  0.000162  (-0.007094  0.010554 -0.000798)
 42:   1453.93   0.000880    4.45  0.000189  ( 0.000124  0.002666 -0.013483)
 43:   1456.01   0.000586    2.96  0.000126  (-0.000820  0.010926 -0.002338)
 44:   1457.79   0.007736   39.10  0.001656  ( 0.006425  0.000018 -0.040184)
 45:   1464.43   0.001705    8.62  0.000363  (-0.018659 -0.000878  0.003792)
 46:   1467.30   0.013051   65.95  0.002776  (-0.052057 -0.003622 -0.007250)
 47:   1472.22   0.000066    0.33  0.000014  (-0.000388 -0.003699 -0.000267)
 48:   1484.79   0.003396   17.16  0.000714  (-0.000602  0.000117 -0.026711)
 49:   1531.69   0.000054    0.27  0.000011  ( 0.000142  0.003313  0.000026)
 50:   1541.89   0.000067    0.34  0.000014  (-0.000274  0.000050  0.003664)
 51:   1678.73   0.021823  110.28  0.004057  (-0.002474  0.063644 -0.000247)
 52:   1735.31   0.005224   26.40  0.000939  ( 0.000657 -0.000167 -0.030643)
 53:   3080.68   0.000613    3.10  0.000062  ( 0.000215 -0.007855  0.000589)
 54:   3080.99   0.000119    0.60  0.000012  (-0.000064  0.001387  0.003183)
 55:   3098.95   0.000866    4.37  0.000087  ( 0.000294 -0.009037  0.002329)
 56:   3099.09   0.000473    2.39  0.000048  ( 0.000308 -0.005968 -0.003449)
 57:   3173.21   0.000078    0.39  0.000008  ( 0.002767  0.000101 -0.000044)
 58:   3173.65   0.000061    0.31  0.000006  (-0.002436 -0.000128 -0.000088)
 59:   3208.97   0.000021    0.11  0.000002  (-0.000042  0.001413 -0.000203)
 60:   3210.73   0.000087    0.44  0.000008  (-0.000075  0.000098  0.002899)
 61:   3212.79   0.000001    0.01  0.000000  (-0.000349 -0.000049 -0.000083)
 62:   3212.89   0.000002    0.01  0.000000  (-0.000400 -0.000037  0.000000)
 63:   3227.09   0.000002    0.01  0.000000  (-0.000051  0.000362  0.000170)
 64:   3227.21   0.000002    0.01  0.000000  (-0.000029 -0.000474  0.000128)
 65:   3298.70   0.005895   29.79  0.000558  (-0.000528  0.000068  0.023610)

--------------------------
THERMOCHEMISTRY AT 298.15K
--------------------------

Temperature         ... 298.15 K
Pressure            ... 1.00 atm
Total Mass          ... 125.19 AMU

Throughout the following assumptions are being made:
  (1) The electronic state is orbitally nondegenerate
  (2) There are no thermally accessible electronically excited states
  (3) Hindered rotations indicated by low frequency modes are not
      treated as such but are treated as vibrations and this may
      cause some error
  (4) All equations used are the standard statistical mechanics
      equations for an ideal gas
  (5) All vibrations are strictly harmonic

freq.      95.73  E(vib)   ...       0.47
freq.     104.03  E(vib)   ...       0.46
freq.     138.59  E(vib)   ...       0.42
freq.     144.87  E(vib)   ...       0.41
freq.     156.00  E(vib)   ...       0.40
freq.     185.01  E(vib)   ...       0.37
freq.     275.79  E(vib)   ...       0.28
freq.     279.00  E(vib)   ...       0.28
freq.     292.30  E(vib)   ...       0.27
freq.     304.96  E(vib)   ...       0.26
freq.     330.30  E(vib)   ...       0.24
freq.     540.98  E(vib)   ...       0.12
freq.     576.01  E(vib)   ...       0.11
freq.     621.81  E(vib)   ...       0.09
freq.     648.36  E(vib)   ...       0.08
freq.     693.46  E(vib)   ...       0.07
freq.     741.35  E(vib)   ...       0.06
freq.     848.75  E(vib)   ...       0.04
freq.     860.84  E(vib)   ...       0.04
freq.     971.96  E(vib)   ...       0.03
freq.    1045.78  E(vib)   ...       0.02
freq.    1068.37  E(vib)   ...       0.02
freq.    1082.04  E(vib)   ...       0.02
freq.    1104.64  E(vib)   ...       0.02
freq.    1117.39  E(vib)   ...       0.01
freq.    1141.81  E(vib)   ...       0.01
freq.    1147.23  E(vib)   ...       0.01
freq.    1192.50  E(vib)   ...       0.01
freq.    1239.13  E(vib)   ...       0.01
freq.    1288.08  E(vib)   ...       0.01
freq.    1397.14  E(vib)   ...       0.00
freq.    1410.02  E(vib)   ...       0.00
freq.    1421.86  E(vib)   ...       0.00
freq.    1447.01  E(vib)   ...       0.00
freq.    1451.28  E(vib)   ...       0.00
freq.    1452.98  E(vib)   ...       0.00
freq.    1453.93  E(vib)   ...       0.00
freq.    1456.01  E(vib)   ...       0.00
freq.    1457.79  E(vib)   ...       0.00
freq.    1464.43  E(vib)   ...       0.00
freq.    1467.30  E(vib)   ...       0.00
freq.    1472.22  E(vib)   ...       0.00
freq.    1484.79  E(vib)   ...       0.00
freq.    1531.69  E(vib)   ...       0.00
freq.    1541.89  E(vib)   ...       0.00
freq.    1678.73  E(vib)   ...       0.00
freq.    1735.31  E(vib)   ...       0.00
freq.    3080.68  E(vib)   ...       0.00
freq.    3080.99  E(vib)   ...       0.00
freq.    3098.95  E(vib)   ...       0.00
freq.    3099.09  E(vib)   ...       0.00
freq.    3173.21  E(vib)   ...       0.00
freq.    3173.65  E(vib)   ...       0.00
freq.    3208.97  E(vib)   ...       0.00
freq.    3210.73  E(vib)   ...       0.00
freq.    3212.79  E(vib)   ...       0.00
freq.    3212.89  E(vib)   ...       0.00
freq.    3227.09  E(vib)   ...       0.00
freq.    3227.21  E(vib)   ...       0.00
freq.    3298.70  E(vib)   ...       0.00

------------
INNER ENERGY
------------

The inner energy is: U= E(el) + E(ZPE) + E(vib) + E(rot) + E(trans)
    E(el)   - is the total energy from the electronic structure calculation
              = E(kin-el) + E(nuc-el) + E(el-el) + E(nuc-nuc)
    E(ZPE)  - the the zero temperature vibrational energy from the frequency calculation
    E(vib)  - the the finite temperature correction to E(ZPE) due to population
              of excited vibrational states
    E(rot)  - is the rotational thermal energy
    E(trans)- is the translational thermal energy

Summary of contributions to the inner energy U:
Electronic energy                ...   -383.50921217 Eh
Zero point energy                ...      0.19789625 Eh     124.18 kcal/mol
Thermal vibrational correction   ...      0.00747415 Eh       4.69 kcal/mol
Thermal rotational correction    ...      0.00141627 Eh       0.89 kcal/mol
Thermal translational correction ...      0.00141627 Eh       0.89 kcal/mol
-----------------------------------------------------------------------
Total thermal energy                   -383.30100922 Eh

Summary of corrections to the electronic energy:
(perhaps to be used in another calculation)
Total thermal correction                  0.01030670 Eh       6.47 kcal/mol
Non-thermal (ZPE) correction              0.19789625 Eh     124.18 kcal/mol
-----------------------------------------------------------------------
Total correction                          0.20820295 Eh     130.65 kcal/mol

--------
ENTHALPY
--------

The enthalpy is H = U + kB*T
                kB is Boltzmann's constant
Total free energy                 ...   -383.30100922 Eh
Thermal Enthalpy correction       ...      0.00094421 Eh       0.59 kcal/mol
-----------------------------------------------------------------------
Total Enthalpy                    ...   -383.30006501 Eh

Note: Only C1 symmetry has been detected, increase convergence thresholds
      if your molecule has a higher symmetry. Symmetry factor of 1.0 is
      used for the rotational entropy correction.

Note: Rotational entropy computed according to Herzberg
Infrared and Raman Spectra, Chapter V,1, Van Nostrand Reinhold, 1945
Point Group:  C1, Symmetry Number:   1
Rotational constants in cm-1:     0.080897     0.050319     0.031778

Vibrational entropy computed according to the QRRHO of S. Grimme
Chem.Eur.J. 2012 18 9955

-------
ENTROPY
-------

The entropy contributions are T*S = T*(S(el)+S(vib)+S(rot)+S(trans))
     S(el)   - electronic entropy
     S(vib)  - vibrational entropy
     S(rot)  - rotational entropy
     S(trans)- translational entropy
The entropies will be listed as multiplied by the temperature to get
units of energy

Electronic entropy                ...      0.00000000 Eh      0.00 kcal/mol
Vibrational entropy               ...      0.01304953 Eh      8.19 kcal/mol
Rotational entropy                ...      0.01373740 Eh      8.62 kcal/mol
Translational entropy             ...      0.01918948 Eh     12.04 kcal/mol
-----------------------------------------------------------------------
Final entropy term                ...      0.04597641 Eh     28.85 kcal/mol

In case the symmetry of your molecule has not been determined correctly
or in case you have a reason to use a different symmetry number we print
out the resulting rotational entropy values for sn=1,12 :
 --------------------------------------------------------
|  sn= 1 | S(rot)=       0.01373740 Eh      8.62 kcal/mol|
|  sn= 2 | S(rot)=       0.01308295 Eh      8.21 kcal/mol|
|  sn= 3 | S(rot)=       0.01270012 Eh      7.97 kcal/mol|

                             ****ORCA TERMINATED NORMALLY****
TOTAL RUN TIME: 0 days 0 hours 13 minutes 46 seconds 752 msec
