                         Program Version 5.0.3 -  RELEASE  -
|  1> ! Opt FREQ wB97X D4 Def2-SVP SlowConv TightSCF DEFGRID2 Def2/J RIJCOSX
|  2> %MAXCORE 4000
|  3> %scf MaxIter 20000 end
|  4> %geom
|  5> MaxIter 500
|  6> end
|  7> %PAL NPROCS 8 END
|  8>
|  9> * xyz 1 1
| 10> N 0.11642 1.11977 1.04633
| 11> N -0.03944 -1.05348 1.03349
| 12> C 0.06405 0.67264 -0.28796
| 13> C 0.072 -0.68979 -0.28215
| 14> C 0.05861 0.03969 1.86197
| 15> Cl -0.17288 1.77087 -1.57584
| 16> Cl 0.12072 -1.84334 -1.52211
| 17> C 0.31268 2.47575 1.44556
| 18> C -0.40995 -2.38487 1.47401
| 19> H 0.26352 2.62701 2.53394
| 20> H -0.09598 -2.5416 2.51294
| 21> H -0.47577 3.0743 0.97132
| 22> H -1.50036 -2.44903 1.43847
| 23> H 0.11382 -3.10947 0.85108
| 24> H 1.30829 2.78248 1.08612
| 25> H 0.08511 -0.06316 2.94733
| 26> **                         ****END OF INPUT****
 Total Charge           Charge          ....    1
 Multiplicity           Mult            ....    1
 Number of Electrons    NEL             ....   84
Dispersion correction           -0.002508803
FINAL SINGLE POINT ENERGY     -1223.809368280599
Dispersion correction            ... Starting D4
Dispersion correction           -0.002506189
FINAL SINGLE POINT ENERGY     -1223.820149397165
Dispersion correction            ... Starting D4
Dispersion correction           -0.002504927
FINAL SINGLE POINT ENERGY     -1223.823348578089
Dispersion correction            ... Starting D4
FINAL SINGLE POINT ENERGY     -1223.824016716185
FINAL SINGLE POINT ENERGY     -1223.824227584912
FINAL SINGLE POINT ENERGY     -1223.824295622112
FINAL SINGLE POINT ENERGY     -1223.824346604773
FINAL SINGLE POINT ENERGY     -1223.824398496645
FINAL SINGLE POINT ENERGY     -1223.824467083370
FINAL SINGLE POINT ENERGY     -1223.824545838568
FINAL SINGLE POINT ENERGY     -1223.824572805278
Dispersion correction           -0.002504928
FINAL SINGLE POINT ENERGY     -1223.824580032153
Dispersion correction            ... Starting D4
Dispersion correction           -0.002504930
FINAL SINGLE POINT ENERGY     -1223.824584282572
Dispersion correction            ... Starting D4
                    ***********************HURRAY********************

CARTESIAN COORDINATES (ANGSTROEM)
---------------------------------
  N      0.140856    1.104048    1.008475
  N     -0.159610   -1.049146    1.038425
  C      0.047792    0.691943   -0.306922
  C     -0.139943   -0.663471   -0.288075
  C      0.012096    0.035099    1.792155
  Cl     0.158120    1.752042   -1.609957
  Cl    -0.323620   -1.750745   -1.559957
  C      0.343949    2.483114    1.451323
  C     -0.337609   -2.419484    1.517759
  H      0.415236    2.491899    2.545180
  H     -0.377841   -2.404740    2.613088
  H     -0.504167    3.101663    1.130050
  H     -1.276274   -2.824878    1.118758
  H      0.505507   -3.039023    1.185178
  H      1.273710    2.873119    1.017484
  H      0.042638    0.046329    2.881536

 Multiplicity           Mult            ....    1
 Number of Electrons    NEL             ....   84
 Basis Dimension        Dim             ....  169

ORBITAL ENERGIES
----------------

  NO   OCC          E(Eh)            E(eV)
   0   2.0000    -101.659573     -2766.2976
   1   2.0000    -101.659534     -2766.2965
   2   2.0000     -14.688570      -399.6963
   3   2.0000     -14.688535      -399.6954
   4   2.0000     -10.559510      -287.3389
   5   2.0000     -10.547397      -287.0093
   6   2.0000     -10.546855      -286.9945
   7   2.0000     -10.491800      -285.4964
   8   2.0000     -10.491759      -285.4953
   9   2.0000      -9.732149      -264.8252
  10   2.0000      -9.732104      -264.8240
  11   2.0000      -7.501718      -204.1321
  12   2.0000      -7.501680      -204.1311
  13   2.0000      -7.489587      -203.8020
  14   2.0000      -7.489544      -203.8009
  15   2.0000      -7.489488      -203.7993
  16   2.0000      -7.489446      -203.7982
  17   2.0000      -1.395813       -37.9820
  18   2.0000      -1.274453       -34.6796
  19   2.0000      -1.200246       -32.6603
  20   2.0000      -1.161190       -31.5976
  21   2.0000      -1.094150       -29.7733
  22   2.0000      -1.046173       -28.4678
  23   2.0000      -1.000839       -27.2342
  24   2.0000      -0.924299       -25.1515
  25   2.0000      -0.913339       -24.8532
  26   2.0000      -0.838653       -22.8209
  27   2.0000      -0.818677       -22.2773
  28   2.0000      -0.776231       -21.1223
  29   2.0000      -0.764959       -20.8156
  30   2.0000      -0.746799       -20.3214
  31   2.0000      -0.745705       -20.2917
  32   2.0000      -0.734407       -19.9842
  33   2.0000      -0.694034       -18.8856
  34   2.0000      -0.690068       -18.7777
  35   2.0000      -0.684937       -18.6381
  36   2.0000      -0.643512       -17.5109
  37   2.0000      -0.630130       -17.1467
  38   2.0000      -0.597688       -16.2639
  39   2.0000      -0.597475       -16.2581
  40   2.0000      -0.573025       -15.5928
  41   2.0000      -0.502985       -13.6869
  42   0.0000      -0.110055        -2.9948
  43   0.0000      -0.073923        -2.0116
  44   0.0000      -0.039278        -1.0688
  45   0.0000      -0.002151        -0.0585
  46   0.0000       0.001593         0.0433

MULLIKEN ATOMIC CHARGES
-----------------------
   0 N :   -0.219232
   1 N :   -0.218974
   2 C :    0.109594
   3 C :    0.109474
   4 C :    0.215701
   5 Cl:    0.053130
   6 Cl:    0.053164
   7 C :    0.063244
   8 C :    0.063365
   9 H :    0.094004
  10 H :    0.094182
  11 H :    0.114271
  12 H :    0.112069
  13 H :    0.114750
  14 H :    0.112800
  15 H :    0.128459
Sum of atomic charges:    1.0000000

LOEWDIN ATOMIC CHARGES
----------------------
   0 N :    0.078628
   1 N :    0.078644
   2 C :   -0.148047
   3 C :   -0.148069
   4 C :    0.117859
   5 Cl:    0.251121
   6 Cl:    0.251271
   7 C :    0.054414
   8 C :    0.054394
   9 H :    0.055502
  10 H :    0.055522
  11 H :    0.058734
  12 H :    0.057939
  13 H :    0.058872
  14 H :    0.058232
  15 H :    0.064984

  Mayer bond orders larger than 0.100000
B(  0-N ,  2-C ) :   1.1633 B(  0-N ,  4-C ) :   1.3490 B(  0-N ,  7-C ) :   0.8770
B(  1-N ,  3-C ) :   1.1634 B(  1-N ,  4-C ) :   1.3490 B(  1-N ,  8-C ) :   0.8769
B(  2-C ,  3-C ) :   1.5383 B(  2-C ,  5-Cl) :   1.1814 B(  3-C ,  6-Cl) :   1.1814
B(  4-C , 15-H ) :   0.9668 B(  7-C ,  9-H ) :   0.9699 B(  7-C , 11-H ) :   0.9702
B(  7-C , 14-H ) :   0.9699 B(  8-C , 10-H ) :   0.9700 B(  8-C , 12-H ) :   0.9698
B(  8-C , 13-H ) :   0.9703

Dispersion correction           -0.002504941
FINAL SINGLE POINT ENERGY     -1223.824583489754

DIPOLE MOMENT
-------------
                                X             Y             Z
Electronic contribution:     -0.38672      -0.14101     -13.91112
Nuclear contribution   :      0.45864       0.16710      16.47935
                        -----------------------------------------
Total Dipole Moment    :      0.07191       0.02608       2.56823
                        -----------------------------------------
Magnitude (a.u.)       :      2.56937
Magnitude (Debye)      :      6.53082

Dispersion correction in the Hessian             ... Starting D4

VIBRATIONAL FREQUENCIES
-----------------------

Scaling factor for frequencies =  1.000000000  (already applied!)

   0:         0.00 cm**-1
   1:         0.00 cm**-1
   2:         0.00 cm**-1
   3:         0.00 cm**-1
   4:         0.00 cm**-1
   5:         0.00 cm**-1
   6:       110.50 cm**-1
   7:       114.70 cm**-1
   8:       119.57 cm**-1
   9:       173.29 cm**-1
  10:       177.52 cm**-1
  11:       239.25 cm**-1
  12:       275.82 cm**-1
  13:       285.65 cm**-1
  14:       328.50 cm**-1
  15:       445.52 cm**-1
  16:       552.80 cm**-1
  17:       562.42 cm**-1
  18:       646.31 cm**-1
  19:       650.38 cm**-1
  20:       692.19 cm**-1
  21:       851.56 cm**-1
  22:       874.77 cm**-1
  23:      1104.11 cm**-1
  24:      1106.34 cm**-1
  25:      1137.01 cm**-1
  26:      1146.64 cm**-1
  27:      1152.30 cm**-1
  28:      1212.69 cm**-1
  29:      1238.89 cm**-1
  30:      1399.95 cm**-1
  31:      1435.69 cm**-1
  32:      1451.31 cm**-1
  33:      1453.01 cm**-1
  34:      1457.80 cm**-1
  35:      1459.11 cm**-1
  36:      1475.89 cm**-1
  37:      1506.35 cm**-1
  38:      1521.62 cm**-1
  39:      1664.44 cm**-1
  40:      1671.37 cm**-1
  41:      3103.86 cm**-1
  42:      3103.95 cm**-1
  43:      3222.96 cm**-1
  44:      3223.06 cm**-1
  45:      3235.35 cm**-1
  46:      3235.82 cm**-1
  47:      3298.38 cm**-1

IR SPECTRUM
-----------

 Mode   freq       eps      Int      T**2         TX        TY        TZ
       cm**-1   L/(mol*cm) km/mol    a.u.
----------------------------------------------------------------------------
  6:    110.50   0.000006    0.03  0.000018  ( 0.004029 -0.000503 -0.001069)
  7:    114.70   0.000044    0.22  0.000119  (-0.010837  0.001141 -0.000645)
  8:    119.57   0.000021    0.11  0.000055  (-0.007145  0.000810 -0.001882)
  9:    173.29   0.000169    0.85  0.000304  ( 0.002681 -0.000635 -0.017225)
 10:    177.52   0.000916    4.63  0.001611  ( 0.039728 -0.005702 -0.000134)
 11:    239.25   0.000006    0.03  0.000008  (-0.001324 -0.002385 -0.000649)
 12:    275.82   0.000627    3.17  0.000709  ( 0.001324  0.000126  0.026591)
 13:    285.65   0.000126    0.63  0.000137  ( 0.011516 -0.001703 -0.001313)
 14:    328.50   0.000000    0.00  0.000000  (-0.000008  0.000057 -0.000411)
 15:    445.52   0.001559    7.88  0.001092  ( 0.004697  0.032703 -0.000451)
 16:    552.80   0.001683    8.50  0.000950  ( 0.000841  0.000270  0.030809)
 17:    562.42   0.000015    0.08  0.000008  (-0.000615 -0.002818 -0.000096)
 18:    646.31   0.002944   14.88  0.001421  ( 0.037319 -0.005162 -0.001407)
 19:    650.38   0.000178    0.90  0.000085  ( 0.002073 -0.000195  0.008999)
 20:    692.19   0.000000    0.00  0.000000  (-0.000099 -0.000049  0.000008)
 21:    851.56   0.001888    9.54  0.000692  (-0.026007  0.003893  0.000692)
 22:    874.77   0.000080    0.40  0.000028  (-0.001071 -0.005218  0.000054)
 23:   1104.11   0.000325    1.64  0.000092  ( 0.000460  0.006157 -0.007335)
 24:   1106.34   0.000827    4.18  0.000233  (-0.001980 -0.014886 -0.002764)
 25:   1137.01   0.001321    6.68  0.000363  (-0.000667 -0.000164 -0.019032)
 26:   1146.64   0.000002    0.01  0.000001  ( 0.000175  0.000027  0.000779)
 27:   1152.30   0.000063    0.32  0.000017  (-0.003112  0.002694  0.000090)
 28:   1212.69   0.019679   99.45  0.005064  (-0.009923 -0.070460  0.000971)
 29:   1238.89   0.001226    6.20  0.000309  ( 0.002470  0.017397 -0.000252)
 30:   1399.95   0.000418    2.11  0.000093  (-0.000020  0.000224  0.009649)
 31:   1435.69   0.000013    0.06  0.000003  ( 0.001645 -0.000147  0.000096)
 32:   1451.31   0.001281    6.48  0.000276  (-0.002314  0.003681  0.016020)
 33:   1453.01   0.002205   11.15  0.000474  ( 0.009686 -0.019180  0.003463)
 34:   1457.80   0.000477    2.41  0.000102  ( 0.009004  0.000078  0.004581)
 35:   1459.11   0.008285   41.87  0.001772  ( 0.042091  0.000488 -0.000222)
 36:   1475.89   0.012179   61.55  0.002575  ( 0.000113 -0.000717 -0.050741)
 37:   1506.35   0.000864    4.37  0.000179  (-0.000964 -0.013348  0.000010)
 38:   1521.62   0.000180    0.91  0.000037  ( 0.000086  0.000109  0.006076)
 39:   1664.44   0.022324  112.82  0.004186  (-0.008633 -0.064100  0.001495)
 40:   1671.37   0.014559   73.58  0.002718  (-0.001522 -0.001342 -0.052099)
 41:   3103.86   0.000281    1.42  0.000028  ( 0.000011 -0.001243  0.005169)
 42:   3103.95   0.000138    0.70  0.000014  (-0.000380 -0.003041 -0.002129)
 43:   3222.96   0.000239    1.21  0.000023  ( 0.004768 -0.000636  0.000159)
 44:   3223.06   0.000356    1.80  0.000034  ( 0.005814 -0.000771 -0.000270)
 45:   3235.35   0.000138    0.70  0.000013  ( 0.000412  0.002178 -0.002898)
 46:   3235.82   0.000141    0.71  0.000014  ( 0.000773  0.002316  0.002767)
 47:   3298.38   0.008357   42.23  0.000791  ( 0.000807  0.000268  0.028106)

--------------------------
THERMOCHEMISTRY AT 298.15K
--------------------------

Temperature         ... 298.15 K
Pressure            ... 1.00 atm
Total Mass          ... 166.03 AMU

Throughout the following assumptions are being made:
  (1) The electronic state is orbitally nondegenerate
  (2) There are no thermally accessible electronically excited states
  (3) Hindered rotations indicated by low frequency modes are not
      treated as such but are treated as vibrations and this may
      cause some error
  (4) All equations used are the standard statistical mechanics
      equations for an ideal gas
  (5) All vibrations are strictly harmonic

freq.     110.50  E(vib)   ...       0.45
freq.     114.70  E(vib)   ...       0.44
freq.     119.57  E(vib)   ...       0.44
freq.     173.29  E(vib)   ...       0.38
freq.     177.52  E(vib)   ...       0.37
freq.     239.25  E(vib)   ...       0.31
freq.     275.82  E(vib)   ...       0.28
freq.     285.65  E(vib)   ...       0.28
freq.     328.50  E(vib)   ...       0.24
freq.     445.52  E(vib)   ...       0.17
freq.     552.80  E(vib)   ...       0.12
freq.     562.42  E(vib)   ...       0.11
freq.     646.31  E(vib)   ...       0.09
freq.     650.38  E(vib)   ...       0.08
freq.     692.19  E(vib)   ...       0.07
freq.     851.56  E(vib)   ...       0.04
freq.     874.77  E(vib)   ...       0.04
freq.    1104.11  E(vib)   ...       0.02
freq.    1106.34  E(vib)   ...       0.02
freq.    1137.01  E(vib)   ...       0.01
freq.    1146.64  E(vib)   ...       0.01
freq.    1152.30  E(vib)   ...       0.01
freq.    1212.69  E(vib)   ...       0.01
freq.    1238.89  E(vib)   ...       0.01
freq.    1399.95  E(vib)   ...       0.00
freq.    1435.69  E(vib)   ...       0.00
freq.    1451.31  E(vib)   ...       0.00
freq.    1453.01  E(vib)   ...       0.00
freq.    1457.80  E(vib)   ...       0.00
freq.    1459.11  E(vib)   ...       0.00
freq.    1475.89  E(vib)   ...       0.00
freq.    1506.35  E(vib)   ...       0.00
freq.    1521.62  E(vib)   ...       0.00
freq.    1664.44  E(vib)   ...       0.00
freq.    1671.37  E(vib)   ...       0.00
freq.    3103.86  E(vib)   ...       0.00
freq.    3103.95  E(vib)   ...       0.00
freq.    3222.96  E(vib)   ...       0.00
freq.    3223.06  E(vib)   ...       0.00
freq.    3235.35  E(vib)   ...       0.00
freq.    3235.82  E(vib)   ...       0.00
freq.    3298.38  E(vib)   ...       0.00

------------
INNER ENERGY
------------

The inner energy is: U= E(el) + E(ZPE) + E(vib) + E(rot) + E(trans)
    E(el)   - is the total energy from the electronic structure calculation
              = E(kin-el) + E(nuc-el) + E(el-el) + E(nuc-nuc)
    E(ZPE)  - the the zero temperature vibrational energy from the frequency calculation
    E(vib)  - the the finite temperature correction to E(ZPE) due to population
              of excited vibrational states
    E(rot)  - is the rotational thermal energy
    E(trans)- is the translational thermal energy

Summary of contributions to the inner energy U:
Electronic energy                ...  -1223.82458349 Eh
Zero point energy                ...      0.12329135 Eh      77.37 kcal/mol
Thermal vibrational correction   ...      0.00644411 Eh       4.04 kcal/mol
Thermal rotational correction    ...      0.00141627 Eh       0.89 kcal/mol
Thermal translational correction ...      0.00141627 Eh       0.89 kcal/mol
-----------------------------------------------------------------------
Total thermal energy                  -1223.69201549 Eh

Summary of corrections to the electronic energy:
(perhaps to be used in another calculation)
Total thermal correction                  0.00927665 Eh       5.82 kcal/mol
Non-thermal (ZPE) correction              0.12329135 Eh      77.37 kcal/mol
-----------------------------------------------------------------------
Total correction                          0.13256800 Eh      83.19 kcal/mol

--------
ENTHALPY
--------

The enthalpy is H = U + kB*T
                kB is Boltzmann's constant
Total free energy                 ...  -1223.69201549 Eh
Thermal Enthalpy correction       ...      0.00094421 Eh       0.59 kcal/mol
-----------------------------------------------------------------------
Total Enthalpy                    ...  -1223.69107128 Eh

Note: Only C1 symmetry has been detected, increase convergence thresholds
      if your molecule has a higher symmetry. Symmetry factor of 1.0 is
      used for the rotational entropy correction.

Note: Rotational entropy computed according to Herzberg
Infrared and Raman Spectra, Chapter V,1, Van Nostrand Reinhold, 1945
Point Group:  C1, Symmetry Number:   1
Rotational constants in cm-1:     0.051277     0.036273     0.021420

Vibrational entropy computed according to the QRRHO of S. Grimme
Chem.Eur.J. 2012 18 9955

-------
ENTROPY
-------

The entropy contributions are T*S = T*(S(el)+S(vib)+S(rot)+S(trans))
     S(el)   - electronic entropy
     S(vib)  - vibrational entropy
     S(rot)  - rotational entropy
     S(trans)- translational entropy
The entropies will be listed as multiplied by the temperature to get
units of energy

Electronic entropy                ...      0.00000000 Eh      0.00 kcal/mol
Vibrational entropy               ...      0.01125038 Eh      7.06 kcal/mol
Rotational entropy                ...      0.01429337 Eh      8.97 kcal/mol
Translational entropy             ...      0.01958930 Eh     12.29 kcal/mol
-----------------------------------------------------------------------
Final entropy term                ...      0.04513304 Eh     28.32 kcal/mol

In case the symmetry of your molecule has not been determined correctly
or in case you have a reason to use a different symmetry number we print
out the resulting rotational entropy values for sn=1,12 :
 --------------------------------------------------------
|  sn= 1 | S(rot)=       0.01429337 Eh      8.97 kcal/mol|
|  sn= 2 | S(rot)=       0.01363891 Eh      8.56 kcal/mol|
|  sn= 3 | S(rot)=       0.01325608 Eh      8.32 kcal/mol|
|  sn= 4 | S(rot)=       0.01298445 Eh      8.15 kcal/mol|
|  sn= 5 | S(rot)=       0.01277377 Eh      8.02 kcal/mol|
|  sn= 6 | S(rot)=       0.01260162 Eh      7.91 kcal/mol|
|  sn= 7 | S(rot)=       0.01245608 Eh      7.82 kcal/mol|
|  sn= 8 | S(rot)=       0.01233000 Eh      7.74 kcal/mol|
|  sn= 9 | S(rot)=       0.01221879 Eh      7.67 kcal/mol|
|  sn=10 | S(rot)=       0.01211931 Eh      7.60 kcal/mol|
|  sn=11 | S(rot)=       0.01202932 Eh      7.55 kcal/mol|
|  sn=12 | S(rot)=       0.01194716 Eh      7.50 kcal/mol|
 --------------------------------------------------------

-------------------
GIBBS FREE ENERGY
-------------------

The Gibbs free energy is G = H - T*S

                             ****ORCA TERMINATED NORMALLY****
TOTAL RUN TIME: 0 days 0 hours 7 minutes 38 seconds 261 msec
