                         Program Version 5.0.4 -  RELEASE  -
|  1> ! Opt FREQ wB97X D4 Def2-SVP SlowConv TightSCF DEFGRID2 Def2/J RIJCOSX
|  2> %MAXCORE 4000
|  3> %scf MaxIter 20000 end
|  4> %geom
|  5> MaxIter 500
|  6> end
|  7> %PAL NPROCS 8 END
|  8>
|  9> * xyz 1 1
| 10> C 0.05723 0.64841 -1.27305
| 11> C -0.04807 -0.7018 -1.31335
| 12> C 0.01942 0.02216 0.83434
| 13> N 0.11662 1.14313 0.05455
| 14> N -0.07481 -1.07814 0.03328
| 15> H 0.06187 -0.08178 1.89476
| 16> C 0.08853 1.55412 -2.48571
| 17> C 0.03642 -1.668 -2.43581
| 18> H -0.90654 1.99162 -2.67964
| 19> H -0.43843 -2.60229 -2.14664
| 20> H 1.09191 -1.81378 -2.63178
| 21> H 0.79392 2.36816 -2.54309
| 22> H 0.23382 0.90944 -3.33407
| 23> H -0.44185 -1.27313 -3.32501
| 24> C -1.34 2.66115 1.3326
| 25> C -1.23568 -2.75459 1.32761
| 26> C 1.21912 -2.79275 1.27373
| 27> C 1.2468 2.9646 1.23909
| 28> C -0.05065 2.52054 0.49764
| 29> C -0.02896 -2.49417 0.47193
| 30> H -2.2164 2.29061 0.77685
| 31> H -2.11418 -2.92546 0.70159
| 32> H 2.15573 -2.55265 0.75716
| 33> H 2.02758 2.63097 0.58567
| 34> H -1.27553 2.14384 2.27169
| 35> H -1.46723 -1.9421 2.02627
| 36> H 1.2312 -2.29856 2.24349
| 37> H 1.3597 2.43734 2.19002
| 38> H -1.49975 3.71037 1.56927
| 39> H -1.0704 -3.63197 1.90279
| 40> H 1.26875 -3.86002 1.44555
| 41> H 1.33338 4.04187 1.39701
| 42> H -0.25028 3.13142 -0.38775
| 43> H -0.00981 -3.10574 -0.40152
| 44> **                         ****END OF INPUT****
 Total Charge           Charge          ....    1
 Multiplicity           Mult            ....    1
 Number of Electrons    NEL             ....  100
Dispersion correction           -0.005581507
FINAL SINGLE POINT ENERGY      -540.600474939475
Dispersion correction            ... Starting D4
Dispersion correction           -0.005595584
FINAL SINGLE POINT ENERGY      -540.620879619582
Dispersion correction            ... Starting D4
Dispersion correction           -0.005598516
FINAL SINGLE POINT ENERGY      -540.627009834779
Dispersion correction            ... Starting D4
FINAL SINGLE POINT ENERGY      -540.629300180578
FINAL SINGLE POINT ENERGY      -540.630445852529
FINAL SINGLE POINT ENERGY      -540.631181626728
FINAL SINGLE POINT ENERGY      -540.631771507238
FINAL SINGLE POINT ENERGY      -540.632326761957
FINAL SINGLE POINT ENERGY      -540.632847136508
FINAL SINGLE POINT ENERGY      -540.633214185255
FINAL SINGLE POINT ENERGY      -540.633373297566
FINAL SINGLE POINT ENERGY      -540.633500242604
FINAL SINGLE POINT ENERGY      -540.633855558984
FINAL SINGLE POINT ENERGY      -540.633939268245
FINAL SINGLE POINT ENERGY      -540.634004659325
Dispersion correction           -0.005602500
FINAL SINGLE POINT ENERGY      -540.634016805427
Dispersion correction            ... Starting D4
Dispersion correction           -0.005602451
FINAL SINGLE POINT ENERGY      -540.634019696689
Dispersion correction            ... Starting D4
                    ***********************HURRAY********************

CARTESIAN COORDINATES (ANGSTROEM)
---------------------------------
  C     -0.061795    0.650332   -1.285436
  C      0.047032   -0.716674   -1.263037
  C     -0.006075    0.001239    0.824550
  N     -0.097371    1.069027    0.036467
  N      0.084837   -1.091866    0.071835
  H     -0.004906    0.019364    1.912078
  C     -0.143226    1.594297   -2.436640
  C      0.128989   -1.697188   -2.383075
  H     -1.100234    2.138320   -2.447352
  H     -0.682417   -2.438834   -2.335569
  H      1.088989   -2.236065   -2.380286
  H      0.672562    2.332371   -2.416288
  H     -0.067086    1.041001   -3.380780
  H      0.045505   -1.174772   -3.344059
  C     -0.943328    2.615610    1.773801
  C     -1.286808   -3.032466    0.719089
  C      0.936068   -2.575190    1.860812
  C      1.286556    3.018804    0.623884
  C     -0.132933    2.478478    0.493370
  C      0.128553   -2.485474    0.574312
  H     -1.946000    2.175463    1.669547
  H     -1.848607   -2.967661   -0.224355
  H      1.935516   -2.130277    1.746301
  H      1.849834    2.918097   -0.315533
  H     -0.435253    2.154235    2.635444
  H     -1.842518   -2.479622    1.492823
  H      0.420861   -2.091824    2.706032
  H      1.835926    2.487420    1.416958
  H     -1.066260    3.681971    2.008598
  H     -1.249050   -4.089593    1.018294
  H      1.066929   -3.632678    2.129147
  H      1.256803    4.085542    0.887851
  H     -0.656642    3.017962   -0.309811
  H      0.658980   -3.046530   -0.209501

 Multiplicity           Mult            ....    1
 Number of Electrons    NEL             ....  100
 Basis Dimension        Dim             ....  287

ORBITAL ENERGIES
----------------

  NO   OCC          E(Eh)            E(eV)
   0   2.0000     -14.638050      -398.3216
   1   2.0000     -14.637996      -398.3201
   2   2.0000     -10.514686      -286.1191
   3   2.0000     -10.469236      -284.8824
   4   2.0000     -10.469205      -284.8815
   5   2.0000     -10.466840      -284.8172
   6   2.0000     -10.466354      -284.8040
   7   2.0000     -10.419055      -283.5169
   8   2.0000     -10.418993      -283.5152
   9   2.0000     -10.406265      -283.1689
  10   2.0000     -10.406212      -283.1674
  11   2.0000     -10.402233      -283.0592
  12   2.0000     -10.402181      -283.0577
  13   2.0000      -1.343824       -36.5673
  14   2.0000      -1.226087       -33.3635
  15   2.0000      -1.100456       -29.9449
  16   2.0000      -1.073418       -29.2092
  17   2.0000      -1.047670       -28.5085
  18   2.0000      -0.999413       -27.1954
  19   2.0000      -0.963259       -26.2116
  20   2.0000      -0.951521       -25.8922
  21   2.0000      -0.948969       -25.8228
  22   2.0000      -0.935974       -25.4691
  23   2.0000      -0.866931       -23.5904
  24   2.0000      -0.860363       -23.4117
  25   2.0000      -0.829602       -22.5746
  26   2.0000      -0.783490       -21.3199
  27   2.0000      -0.768172       -20.9030
  28   2.0000      -0.749543       -20.3961
  29   2.0000      -0.728087       -19.8123
  30   2.0000      -0.706088       -19.2136
  31   2.0000      -0.704173       -19.1615
  32   2.0000      -0.683458       -18.5978
  33   2.0000      -0.675806       -18.3896
  34   2.0000      -0.674150       -18.3446
  35   2.0000      -0.660583       -17.9754
  36   2.0000      -0.654629       -17.8134
  37   2.0000      -0.648612       -17.6496
  38   2.0000      -0.646431       -17.5903
  39   2.0000      -0.635899       -17.3037
  40   2.0000      -0.629411       -17.1271
  41   2.0000      -0.623033       -16.9536
  42   2.0000      -0.618880       -16.8406
  43   2.0000      -0.613455       -16.6930
  44   2.0000      -0.602503       -16.3949
  45   2.0000      -0.592019       -16.1096
  46   2.0000      -0.589100       -16.0302
  47   2.0000      -0.587285       -15.9808
  48   2.0000      -0.539114       -14.6700
  49   2.0000      -0.482739       -13.1360
  50   0.0000      -0.074990        -2.0406
  51   0.0000      -0.026759        -0.7281
  52   0.0000      -0.000044        -0.0012
  53   0.0000       0.007864         0.2140
  54   0.0000       0.016058         0.4370

MULLIKEN ATOMIC CHARGES
-----------------------
   0 C :   -0.089607
   1 C :   -0.089761
   2 C :    0.203227
   3 N :   -0.191270
   4 N :   -0.191445
   5 H :    0.088385
   6 C :    0.072357
   7 C :    0.072558
   8 H :    0.084699
   9 H :    0.071397
  10 H :    0.084757
  11 H :    0.071612
  12 H :    0.058353
  13 H :    0.058384
  14 C :   -0.032030
  15 C :    0.010362
  16 C :   -0.032590
  17 C :    0.010353
  18 C :   -0.067819
  19 C :   -0.067326
  20 H :    0.066084
  21 H :    0.053237
  22 H :    0.066004
  23 H :    0.053227
  24 H :    0.048114
  25 H :    0.046392
  26 H :    0.048342
  27 H :    0.046213
  28 H :    0.082239
  29 H :    0.077228
  30 H :    0.082276
  31 H :    0.077302
  32 H :    0.064355
  33 H :    0.064395
Sum of atomic charges:    1.0000000

LOEWDIN ATOMIC CHARGES
----------------------
   0 C :   -0.004977
   1 C :   -0.005004
   2 C :    0.100352
   3 N :    0.093666
   4 N :    0.093661
   5 H :    0.048714
   6 C :   -0.049567
   7 C :   -0.049552
   8 H :    0.054646
   9 H :    0.051058
  10 H :    0.054667
  11 H :    0.051111
  12 H :    0.054734
  13 H :    0.054737
  14 C :   -0.053471
  15 C :   -0.049733
  16 C :   -0.053538
  17 C :   -0.049749
  18 C :    0.036631
  19 C :    0.036647
  20 H :    0.040476
  21 H :    0.035664
  22 H :    0.040385
  23 H :    0.035677
  24 H :    0.032308
  25 H :    0.035462
  26 H :    0.032382
  27 H :    0.035362
  28 H :    0.055438
  29 H :    0.051321
  30 H :    0.055472
  31 H :    0.051312
  32 H :    0.041846
  33 H :    0.041863

  Mayer bond orders larger than 0.100000
B(  0-C ,  1-C ) :   1.6143 B(  0-C ,  3-N ) :   1.1700 B(  0-C ,  6-C ) :   1.0823
B(  1-C ,  4-N ) :   1.1700 B(  1-C ,  7-C ) :   1.0823 B(  2-C ,  3-N ) :   1.3464
B(  2-C ,  4-N ) :   1.3465 B(  2-C ,  5-H ) :   0.9733 B(  3-N , 18-C ) :   0.8440
B(  4-N , 19-C ) :   0.8439 B(  6-C ,  8-H ) :   0.9483 B(  6-C , 11-H ) :   0.9471
B(  6-C , 12-H ) :   0.9404 B(  7-C ,  9-H ) :   0.9470 B(  7-C , 10-H ) :   0.9483
B(  7-C , 13-H ) :   0.9403 B( 14-C , 18-C ) :   1.0678 B( 14-C , 20-H ) :   0.9686
B( 14-C , 24-H ) :   0.9611 B( 14-C , 28-H ) :   0.9630 B( 15-C , 19-C ) :   1.0643
B( 15-C , 21-H ) :   0.9640 B( 15-C , 25-H ) :   0.9615 B( 15-C , 29-H ) :   0.9698
B( 16-C , 19-C ) :   1.0680 B( 16-C , 22-H ) :   0.9685 B( 16-C , 26-H ) :   0.9611
B( 16-C , 30-H ) :   0.9629 B( 17-C , 18-C ) :   1.0642 B( 17-C , 23-H ) :   0.9640
B( 17-C , 27-H ) :   0.9615 B( 17-C , 31-H ) :   0.9698 B( 18-C , 32-H ) :   0.9351
B( 19-C , 33-H ) :   0.9352

Dispersion correction           -0.005602585
FINAL SINGLE POINT ENERGY      -540.634026215393

DIPOLE MOMENT
-------------
                                X             Y             Z
Electronic contribution:     -0.02259      -0.03075      -2.27698
Nuclear contribution   :      0.02478       0.03260       2.35870
                        -----------------------------------------
Total Dipole Moment    :      0.00219       0.00186       0.08172
                        -----------------------------------------
Magnitude (a.u.)       :      0.08177
Magnitude (Debye)      :      0.20785

Dispersion correction in the Hessian             ... Starting D4

VIBRATIONAL FREQUENCIES
-----------------------

Scaling factor for frequencies =  1.000000000  (already applied!)

   0:         0.00 cm**-1
   1:         0.00 cm**-1
   2:         0.00 cm**-1
   3:         0.00 cm**-1
   4:         0.00 cm**-1
   5:         0.00 cm**-1
   6:        57.16 cm**-1
   7:        68.88 cm**-1
   8:        92.04 cm**-1
   9:       105.46 cm**-1
  10:       108.76 cm**-1
  11:       135.54 cm**-1
  12:       148.05 cm**-1
  13:       213.92 cm**-1
  14:       220.92 cm**-1
  15:       255.44 cm**-1
  16:       256.71 cm**-1
  17:       284.75 cm**-1
  18:       288.48 cm**-1
  19:       291.65 cm**-1
  20:       292.06 cm**-1
  21:       320.55 cm**-1
  22:       328.41 cm**-1
  23:       376.96 cm**-1
  24:       432.95 cm**-1
  25:       460.78 cm**-1
  26:       484.12 cm**-1
  27:       549.78 cm**-1
  28:       609.17 cm**-1
  29:       616.91 cm**-1
  30:       680.04 cm**-1
  31:       713.21 cm**-1
  32:       754.22 cm**-1
  33:       798.66 cm**-1
  34:       861.82 cm**-1
  35:       911.99 cm**-1
  36:       923.29 cm**-1
  37:       943.93 cm**-1
  38:       944.43 cm**-1
  39:       964.64 cm**-1
  40:       965.80 cm**-1
  41:       972.86 cm**-1
  42:      1041.86 cm**-1
  43:      1057.94 cm**-1
  44:      1066.40 cm**-1
  45:      1099.76 cm**-1
  46:      1128.77 cm**-1
  47:      1158.84 cm**-1
  48:      1178.17 cm**-1
  49:      1178.55 cm**-1
  50:      1200.85 cm**-1
  51:      1221.40 cm**-1
  52:      1221.55 cm**-1
  53:      1252.21 cm**-1
  54:      1346.46 cm**-1
  55:      1357.34 cm**-1
  56:      1357.77 cm**-1
  57:      1383.86 cm**-1
  58:      1397.67 cm**-1
  59:      1409.68 cm**-1
  60:      1411.67 cm**-1
  61:      1413.83 cm**-1
  62:      1421.65 cm**-1
  63:      1426.66 cm**-1
  64:      1430.63 cm**-1
  65:      1452.03 cm**-1
  66:      1452.87 cm**-1
  67:      1458.10 cm**-1
  68:      1461.93 cm**-1
  69:      1463.32 cm**-1
  70:      1466.19 cm**-1
  71:      1470.35 cm**-1
  72:      1470.91 cm**-1
  73:      1480.43 cm**-1
  74:      1481.16 cm**-1
  75:      1490.95 cm**-1
  76:      1492.74 cm**-1
  77:      1518.06 cm**-1
  78:      1524.11 cm**-1
  79:      1654.75 cm**-1
  80:      1727.25 cm**-1
  81:      3075.33 cm**-1
  82:      3075.49 cm**-1
  83:      3077.10 cm**-1
  84:      3077.12 cm**-1
  85:      3082.12 cm**-1
  86:      3083.05 cm**-1
  87:      3135.87 cm**-1
  88:      3136.77 cm**-1
  89:      3173.85 cm**-1
  90:      3173.94 cm**-1
  91:      3175.93 cm**-1
  92:      3175.97 cm**-1
  93:      3179.41 cm**-1
  94:      3179.52 cm**-1
  95:      3192.14 cm**-1
  96:      3192.32 cm**-1
  97:      3194.89 cm**-1
  98:      3194.94 cm**-1
  99:      3206.11 cm**-1
 100:      3210.31 cm**-1
 101:      3317.24 cm**-1

IR SPECTRUM
-----------

 Mode   freq       eps      Int      T**2         TX        TY        TZ
       cm**-1   L/(mol*cm) km/mol    a.u.
----------------------------------------------------------------------------
  6:     57.16   0.000017    0.09  0.000093  (-0.001306  0.000134  0.009546)
  7:     68.88   0.000044    0.22  0.000200  (-0.014099  0.001050 -0.000468)
  8:     92.04   0.000079    0.40  0.000268  ( 0.015846  0.004084  0.000206)
  9:    105.46   0.000013    0.06  0.000038  (-0.005918  0.000156 -0.001633)
 10:    108.76   0.000031    0.16  0.000089  ( 0.009227 -0.000214 -0.002069)
 11:    135.54   0.000005    0.02  0.000011  ( 0.002590 -0.000081  0.001991)
 12:    148.05   0.000003    0.02  0.000007  ( 0.000275 -0.000112  0.002687)
 13:    213.92   0.000001    0.01  0.000002  ( 0.000260 -0.000352  0.001291)
 14:    220.92   0.000015    0.08  0.000022  (-0.001161 -0.004505  0.000089)
 15:    255.44   0.000004    0.02  0.000004  ( 0.001992 -0.000542  0.000283)
 16:    256.71   0.000003    0.02  0.000004  ( 0.001661 -0.000895 -0.000489)
 17:    284.75   0.000015    0.07  0.000016  ( 0.000167  0.000618 -0.003964)
 18:    288.48   0.000213    1.08  0.000231  (-0.015101  0.001499  0.000455)
 19:    291.65   0.000018    0.09  0.000019  (-0.003964  0.000553  0.001734)
 20:    292.06   0.001184    5.98  0.001265  (-0.035438 -0.003041 -0.000365)
 21:    320.55   0.000046    0.23  0.000045  (-0.001238 -0.006573  0.000448)
 22:    328.41   0.000038    0.19  0.000036  (-0.000081  0.000309  0.006014)
 23:    376.96   0.000165    0.83  0.000137  ( 0.010715  0.004657  0.000105)
 24:    432.95   0.000071    0.36  0.000051  ( 0.006514 -0.003010  0.000056)
 25:    460.78   0.000121    0.61  0.000082  (-0.000027  0.000320  0.009055)
 26:    484.12   0.000008    0.04  0.000005  ( 0.000113 -0.000151  0.002256)
 27:    549.78   0.001377    6.96  0.000782  (-0.001196  0.027932 -0.000361)
 28:    609.17   0.000617    3.12  0.000316  ( 0.000210 -0.000161  0.017783)
 29:    616.91   0.000456    2.31  0.000231  ( 0.006060 -0.013921 -0.000511)
 30:    680.04   0.003030   15.31  0.001391  ( 0.036812 -0.005951  0.000056)
 31:    713.21   0.000003    0.02  0.000001  (-0.000075  0.000126  0.001165)
 32:    754.22   0.000919    4.64  0.000380  ( 0.000133  0.000366  0.019496)
 33:    798.66   0.000417    2.11  0.000163  (-0.005182 -0.011665  0.000179)
 34:    861.82   0.000934    4.72  0.000338  (-0.018230 -0.002390  0.000139)
 35:    911.99   0.000029    0.15  0.000010  ( 0.000030 -0.000030  0.003150)
 36:    923.29   0.000074    0.38  0.000025  ( 0.001386 -0.004813 -0.000083)
 37:    943.93   0.000216    1.09  0.000071  (-0.005058  0.001093  0.006673)
 38:    944.43   0.000403    2.04  0.000133  ( 0.010861 -0.001999  0.003337)
 39:    964.64   0.000057    0.29  0.000018  ( 0.000481 -0.000037  0.004249)
 40:    965.80   0.000206    1.04  0.000066  ( 0.008080 -0.001054 -0.000283)
 41:    972.86   0.000007    0.03  0.000002  (-0.000209 -0.000193  0.001433)
 42:   1041.86   0.000425    2.15  0.000127  (-0.011281 -0.000418  0.000022)
 43:   1057.94   0.000032    0.16  0.000010  ( 0.000602 -0.003018  0.000216)
 44:   1066.40   0.000034    0.17  0.000010  (-0.000005  0.000227  0.003143)
 45:   1099.76   0.000444    2.25  0.000126  (-0.000105 -0.000321 -0.011223)
 46:   1128.77   0.001608    8.13  0.000445  (-0.003669  0.020760 -0.000281)
 47:   1158.84   0.000192    0.97  0.000052  ( 0.000157  0.000345 -0.007186)
 48:   1178.17   0.001308    6.61  0.000346  ( 0.013975 -0.011880  0.003170)
 49:   1178.55   0.000973    4.92  0.000258  (-0.011914  0.010274  0.003183)
 50:   1200.85   0.000291    1.47  0.000076  (-0.003412  0.008006 -0.000094)
 51:   1221.40   0.001020    5.16  0.000261  (-0.000002 -0.010879 -0.011929)
 52:   1221.55   0.031272  158.04  0.007989  (-0.000530  0.089334 -0.002863)
 53:   1252.21   0.000215    1.09  0.000054  ( 0.003848  0.006229 -0.000303)
 54:   1346.46   0.000022    0.11  0.000005  (-0.000125 -0.000735 -0.002150)
 55:   1357.34   0.000027    0.14  0.000006  ( 0.000035 -0.000683  0.002391)
 56:   1357.77   0.000205    1.04  0.000047  ( 0.000007  0.000305  0.006858)
 57:   1383.86   0.002773   14.01  0.000625  (-0.006288 -0.024157  0.001480)
 58:   1397.67   0.000675    3.41  0.000151  ( 0.000578  0.000027  0.012260)
 59:   1409.68   0.004096   20.70  0.000907  (-0.020175 -0.022332  0.000948)
 60:   1411.67   0.000266    1.34  0.000059  (-0.005709 -0.001296 -0.004946)
 61:   1413.83   0.004188   21.17  0.000924  (-0.030045  0.004513  0.001190)
 62:   1421.65   0.001777    8.98  0.000390  ( 0.001525  0.001148  0.019656)
 63:   1426.66   0.003721   18.80  0.000814  ( 0.000146  0.028527 -0.000178)
 64:   1430.63   0.011584   58.54  0.002527  ( 0.000375 -0.000460 -0.050264)
 65:   1452.03   0.002831   14.31  0.000608  ( 0.019808 -0.014696 -0.000315)
 66:   1452.87   0.000164    0.83  0.000035  ( 0.001586 -0.002001  0.005356)
 67:   1458.10   0.003785   19.13  0.000810  (-0.025905 -0.011762 -0.000756)
 68:   1461.93   0.000355    1.80  0.000076  ( 0.000230  0.000284 -0.008701)
 69:   1463.32   0.000750    3.79  0.000160  ( 0.011968  0.004066 -0.000495)
 70:   1466.19   0.001627    8.22  0.000346  ( 0.000336  0.000546  0.018600)
 71:   1470.35   0.000526    2.66  0.000112  ( 0.000113 -0.000927 -0.010529)
 72:   1470.91   0.002380   12.03  0.000505  (-0.013947 -0.017619  0.000160)
 73:   1480.43   0.004516   22.82  0.000952  (-0.011498  0.009171 -0.027124)
 74:   1481.16   0.004545   22.97  0.000957  ( 0.021403 -0.016837 -0.014694)
 75:   1490.95   0.000906    4.58  0.000190  ( 0.008787 -0.010590  0.000604)
 76:   1492.74   0.000006    0.03  0.000001  (-0.000434  0.000990  0.000215)
 77:   1518.06   0.000227    1.15  0.000047  ( 0.000407  0.006803  0.000442)
 78:   1524.11   0.000434    2.19  0.000089  ( 0.000104  0.000359 -0.009414)
 79:   1654.75   0.021966  111.01  0.004142  (-0.002428 -0.064309  0.000995)
 80:   1727.25   0.004028   20.36  0.000728  ( 0.000022  0.000437  0.026973)
 81:   3075.33   0.000930    4.70  0.000094  ( 0.009146  0.002115 -0.002499)
 82:   3075.49   0.000938    4.74  0.000095  (-0.008999 -0.002505 -0.002820)
 83:   3077.10   0.000453    2.29  0.000046  ( 0.001005 -0.005260  0.004156)
 84:   3077.12   0.000943    4.76  0.000096  (-0.000768  0.002233  0.009489)
 85:   3082.12   0.001042    5.27  0.000106  (-0.001090 -0.010210 -0.000289)
 86:   3083.05   0.000217    1.10  0.000022  (-0.000152 -0.000986  0.004582)
 87:   3135.87   0.000298    1.50  0.000030  (-0.003232  0.003558  0.002552)
 88:   3136.77   0.000267    1.35  0.000027  (-0.002994  0.003295 -0.002606)
 89:   3173.85   0.000169    0.85  0.000017  ( 0.003862  0.001294 -0.000055)
 90:   3173.94   0.000057    0.29  0.000006  (-0.002216 -0.000739 -0.000341)
 91:   3175.93   0.000007    0.04  0.000001  (-0.000677  0.000092  0.000509)
 92:   3175.97   0.001127    5.69  0.000111  (-0.010359  0.001842  0.000009)
 93:   3179.41   0.001177    5.95  0.000116  ( 0.006784 -0.008328  0.000361)
 94:   3179.52   0.003344   16.90  0.000328  (-0.000046  0.000315  0.018115)
 95:   3192.14   0.000533    2.69  0.000052  ( 0.005175 -0.003026 -0.004019)
 96:   3192.32   0.000579    2.93  0.000057  ( 0.006013 -0.002848  0.003510)
 97:   3194.89   0.001008    5.09  0.000098  ( 0.001853  0.009682 -0.001139)
 98:   3194.94   0.000166    0.84  0.000016  ( 0.000766  0.002994  0.002575)
 99:   3206.11   0.000179    0.90  0.000017  ( 0.000751  0.004075 -0.000493)
100:   3210.31   0.000230    1.16  0.000022  ( 0.000094  0.000326  0.004713)
101:   3317.24   0.004254   21.50  0.000400  ( 0.000040  0.000302  0.020002)

--------------------------
THERMOCHEMISTRY AT 298.15K
--------------------------

Temperature         ... 298.15 K
Pressure            ... 1.00 atm
Total Mass          ... 181.30 AMU

Throughout the following assumptions are being made:
  (1) The electronic state is orbitally nondegenerate
  (2) There are no thermally accessible electronically excited states
  (3) Hindered rotations indicated by low frequency modes are not
      treated as such but are treated as vibrations and this may
      cause some error
  (4) All equations used are the standard statistical mechanics
      equations for an ideal gas
  (5) All vibrations are strictly harmonic

freq.      57.16  E(vib)   ...       0.51
freq.      68.88  E(vib)   ...       0.50
freq.      92.04  E(vib)   ...       0.47
freq.     105.46  E(vib)   ...       0.45
freq.     108.76  E(vib)   ...       0.45
freq.     135.54  E(vib)   ...       0.42
freq.     148.05  E(vib)   ...       0.41
freq.     213.92  E(vib)   ...       0.34
freq.     220.92  E(vib)   ...       0.33
freq.     255.44  E(vib)   ...       0.30
freq.     256.71  E(vib)   ...       0.30
freq.     284.75  E(vib)   ...       0.28
freq.     288.48  E(vib)   ...       0.27
freq.     291.65  E(vib)   ...       0.27
freq.     292.06  E(vib)   ...       0.27
freq.     320.55  E(vib)   ...       0.25
freq.     328.41  E(vib)   ...       0.24
freq.     376.96  E(vib)   ...       0.21
freq.     432.95  E(vib)   ...       0.17
freq.     460.78  E(vib)   ...       0.16
freq.     484.12  E(vib)   ...       0.15
freq.     549.78  E(vib)   ...       0.12
freq.     609.17  E(vib)   ...       0.10
freq.     616.91  E(vib)   ...       0.09
freq.     680.04  E(vib)   ...       0.08
freq.     713.21  E(vib)   ...       0.07
freq.     754.22  E(vib)   ...       0.06
freq.     798.66  E(vib)   ...       0.05
freq.     861.82  E(vib)   ...       0.04
freq.     911.99  E(vib)   ...       0.03
freq.     923.29  E(vib)   ...       0.03
freq.     943.93  E(vib)   ...       0.03
freq.     944.43  E(vib)   ...       0.03
freq.     964.64  E(vib)   ...       0.03
freq.     965.80  E(vib)   ...       0.03
freq.     972.86  E(vib)   ...       0.03
freq.    1041.86  E(vib)   ...       0.02
freq.    1057.94  E(vib)   ...       0.02
freq.    1066.40  E(vib)   ...       0.02
freq.    1099.76  E(vib)   ...       0.02
freq.    1128.77  E(vib)   ...       0.01
freq.    1158.84  E(vib)   ...       0.01
freq.    1178.17  E(vib)   ...       0.01
freq.    1178.55  E(vib)   ...       0.01
freq.    1200.85  E(vib)   ...       0.01
freq.    1221.40  E(vib)   ...       0.01
freq.    1221.55  E(vib)   ...       0.01
freq.    1252.21  E(vib)   ...       0.01
freq.    1346.46  E(vib)   ...       0.01
freq.    1357.34  E(vib)   ...       0.01
freq.    1357.77  E(vib)   ...       0.01
freq.    1383.86  E(vib)   ...       0.00
freq.    1397.67  E(vib)   ...       0.00
freq.    1409.68  E(vib)   ...       0.00
freq.    1411.67  E(vib)   ...       0.00
freq.    1413.83  E(vib)   ...       0.00
freq.    1421.65  E(vib)   ...       0.00
freq.    1426.66  E(vib)   ...       0.00
freq.    1430.63  E(vib)   ...       0.00
freq.    1452.03  E(vib)   ...       0.00
freq.    1452.87  E(vib)   ...       0.00
freq.    1458.10  E(vib)   ...       0.00
freq.    1461.93  E(vib)   ...       0.00
freq.    1463.32  E(vib)   ...       0.00
freq.    1466.19  E(vib)   ...       0.00
freq.    1470.35  E(vib)   ...       0.00
freq.    1470.91  E(vib)   ...       0.00
freq.    1480.43  E(vib)   ...       0.00
freq.    1481.16  E(vib)   ...       0.00
freq.    1490.95  E(vib)   ...       0.00
freq.    1492.74  E(vib)   ...       0.00
freq.    1518.06  E(vib)   ...       0.00
freq.    1524.11  E(vib)   ...       0.00
freq.    1654.75  E(vib)   ...       0.00
freq.    1727.25  E(vib)   ...       0.00
freq.    3075.33  E(vib)   ...       0.00
freq.    3075.49  E(vib)   ...       0.00
freq.    3077.10  E(vib)   ...       0.00
freq.    3077.12  E(vib)   ...       0.00
freq.    3082.12  E(vib)   ...       0.00
freq.    3083.05  E(vib)   ...       0.00
freq.    3135.87  E(vib)   ...       0.00
freq.    3136.77  E(vib)   ...       0.00
freq.    3173.85  E(vib)   ...       0.00
freq.    3173.94  E(vib)   ...       0.00
freq.    3175.93  E(vib)   ...       0.00
freq.    3175.97  E(vib)   ...       0.00
freq.    3179.41  E(vib)   ...       0.00
freq.    3179.52  E(vib)   ...       0.00
freq.    3192.14  E(vib)   ...       0.00
freq.    3192.32  E(vib)   ...       0.00
freq.    3194.89  E(vib)   ...       0.00
freq.    3194.94  E(vib)   ...       0.00
freq.    3206.11  E(vib)   ...       0.00
freq.    3210.31  E(vib)   ...       0.00
freq.    3317.24  E(vib)   ...       0.00

------------
INNER ENERGY
------------

The inner energy is: U= E(el) + E(ZPE) + E(vib) + E(rot) + E(trans)
    E(el)   - is the total energy from the electronic structure calculation
              = E(kin-el) + E(nuc-el) + E(el-el) + E(nuc-nuc)
    E(ZPE)  - the the zero temperature vibrational energy from the frequency calculation
    E(vib)  - the the finite temperature correction to E(ZPE) due to population
              of excited vibrational states
    E(rot)  - is the rotational thermal energy
    E(trans)- is the translational thermal energy

Summary of contributions to the inner energy U:
Electronic energy                ...   -540.63402622 Eh
Zero point energy                ...      0.31204620 Eh     195.81 kcal/mol
Thermal vibrational correction   ...      0.01245941 Eh       7.82 kcal/mol
Thermal rotational correction    ...      0.00141627 Eh       0.89 kcal/mol
Thermal translational correction ...      0.00141627 Eh       0.89 kcal/mol
-----------------------------------------------------------------------
Total thermal energy                   -540.30668806 Eh

Summary of corrections to the electronic energy:
(perhaps to be used in another calculation)
Total thermal correction                  0.01529196 Eh       9.60 kcal/mol
Non-thermal (ZPE) correction              0.31204620 Eh     195.81 kcal/mol
-----------------------------------------------------------------------
Total correction                          0.32733815 Eh     205.41 kcal/mol

--------
ENTHALPY
--------

The enthalpy is H = U + kB*T
                kB is Boltzmann's constant
Total free energy                 ...   -540.30668806 Eh
Thermal Enthalpy correction       ...      0.00094421 Eh       0.59 kcal/mol
-----------------------------------------------------------------------
Total Enthalpy                    ...   -540.30574385 Eh

Note: Only C1 symmetry has been detected, increase convergence thresholds
      if your molecule has a higher symmetry. Symmetry factor of 1.0 is
      used for the rotational entropy correction.

Rotational constants in cm-1:     0.036541     0.019081     0.014537

                             ****ORCA TERMINATED NORMALLY****
TOTAL RUN TIME: 0 days 0 hours 30 minutes 45 seconds 374 msec
