                         Program Version 5.0.3 -  RELEASE  -
|  1> # ORCAForces - ../2023_02/pKa_prediction/Yates_carbene_xyzs/Our_level/Gas/PhH+_Gas.inp
|  2> # Basic Mode
|  3> #
|  4> ! Opt FREQ wB97X D4 Def2-SVP SlowConv TightSCF DEFGRID2 Def2/J RIJCOSX
|  5>
|  6> %maxcore 4500
|  7>
|  8> %PAL NPROCS 4 END
|  9>
| 10> %geom
| 11> Maxiter 150
| 12> END
| 13>
| 14> * xyzfile 1 1 PhH+.xyz
| 15>
| 16>                          ****END OF INPUT****
 Total Charge           Charge          ....    1
 Multiplicity           Mult            ....    1
 Number of Electrons    NEL             ....  116
Dispersion correction           -0.005711201
FINAL SINGLE POINT ENERGY      -688.043423398705
Dispersion correction            ... Starting D4
Dispersion correction           -0.005719440
FINAL SINGLE POINT ENERGY      -688.044568595230
Dispersion correction            ... Starting D4
Dispersion correction           -0.005720528
FINAL SINGLE POINT ENERGY      -688.044577647061
Dispersion correction            ... Starting D4
Dispersion correction           -0.005721500
FINAL SINGLE POINT ENERGY      -688.044562673068
Dispersion correction            ... Starting D4
Dispersion correction           -0.005721145
FINAL SINGLE POINT ENERGY      -688.044566632853
Dispersion correction            ... Starting D4
                    ***********************HURRAY********************

CARTESIAN COORDINATES (ANGSTROEM)
---------------------------------
  C      0.001186    0.680270   -1.862926
  C     -0.001190   -0.680270   -1.862926
  H     -0.010674    1.396080   -2.682208
  H      0.010666   -1.396079   -2.682209
  C      0.000558    2.446219   -0.072690
  C     -0.940429    2.837660    0.876922
  C      0.942593    3.336936   -0.582661
  C     -0.925224    4.153081    1.334333
  H     -1.690582    2.130484    1.241798
  C      0.936389    4.652427   -0.126526
  H      1.682345    3.004043   -1.315960
  C      0.008380    5.058545    0.832178
  H     -1.657740    4.473930    2.078587
  H      1.669840    5.362149   -0.516398
  H      0.011445    6.090899    1.190130
  C     -0.000557   -2.446220   -0.072690
  C      0.940428   -2.837660    0.876923
  C     -0.942592   -3.336936   -0.582662
  C      0.925223   -4.153081    1.334334
  H      1.690581   -2.130484    1.241800
  C     -0.936388   -4.652427   -0.126527
  H     -1.682342   -3.004043   -1.315962
  C     -0.008380   -5.058545    0.832178
  H      1.657738   -4.473929    2.078590
  H     -1.669837   -5.362150   -0.516401
  H     -0.011445   -6.090899    1.190130
  C      0.000002   -0.000000    0.233075
  H      0.000005   -0.000000    1.322767
  N      0.002891    1.084341   -0.542757
  N     -0.002891   -1.084341   -0.542757

 Multiplicity           Mult            ....    1
 Number of Electrons    NEL             ....  116
 Basis Dimension        Dim             ....  303

ORBITAL ENERGIES
----------------

  NO   OCC          E(Eh)            E(eV)
   0   2.0000     -14.663092      -399.0030
   1   2.0000     -14.663082      -399.0027
   2   2.0000     -10.534043      -286.6459
   3   2.0000     -10.481895      -285.2269
   4   2.0000     -10.481319      -285.2112
   5   2.0000     -10.466093      -284.7969
   6   2.0000     -10.466045      -284.7956
   7   2.0000     -10.419360      -283.5252
   8   2.0000     -10.419358      -283.5252
   9   2.0000     -10.418293      -283.4962
  10   2.0000     -10.418289      -283.4961
  11   2.0000     -10.406932      -283.1870
  12   2.0000     -10.406930      -283.1870
  13   2.0000     -10.406655      -283.1795
  14   2.0000     -10.406655      -283.1795
  15   2.0000     -10.403526      -283.0943
  16   2.0000     -10.403526      -283.0943
  17   2.0000      -1.365624       -37.1605
  18   2.0000      -1.247656       -33.9504
  19   2.0000      -1.134836       -30.8805
  20   2.0000      -1.114544       -30.3283
  21   2.0000      -1.076005       -29.2796
  22   2.0000      -1.039707       -28.2919
  23   2.0000      -1.009931       -27.4816
  24   2.0000      -1.007118       -27.4051
  25   2.0000      -1.001067       -27.2404
  26   2.0000      -0.931151       -25.3379
  27   2.0000      -0.928133       -25.2558
  28   2.0000      -0.878457       -23.9040
  29   2.0000      -0.866873       -23.5888
  30   2.0000      -0.858658       -23.3653
  31   2.0000      -0.854780       -23.2597
  32   2.0000      -0.817675       -22.2501
  33   2.0000      -0.788226       -21.4487
  34   2.0000      -0.769455       -20.9379
  35   2.0000      -0.750822       -20.4309
  36   2.0000      -0.737107       -20.0577
  37   2.0000      -0.734870       -19.9968
  38   2.0000      -0.721090       -19.6218
  39   2.0000      -0.716413       -19.4946
  40   2.0000      -0.710925       -19.3452
  41   2.0000      -0.690471       -18.7887
  42   2.0000      -0.675078       -18.3698
  43   2.0000      -0.675044       -18.3689
  44   2.0000      -0.666936       -18.1483
  45   2.0000      -0.665511       -18.1095
  46   2.0000      -0.640801       -17.4371
  47   2.0000      -0.622567       -16.9409
  48   2.0000      -0.597741       -16.2653
  49   2.0000      -0.594377       -16.1738
  50   2.0000      -0.592360       -16.1189
  51   2.0000      -0.582985       -15.8638
  52   2.0000      -0.573422       -15.6036
  53   2.0000      -0.524438       -14.2707
  54   2.0000      -0.485294       -13.2055
  55   2.0000      -0.483284       -13.1508
  56   2.0000      -0.483254       -13.1500
  57   2.0000      -0.476399       -12.9635
  58   0.0000      -0.105656        -2.8750
  59   0.0000      -0.073226        -1.9926
  60   0.0000      -0.062537        -1.7017
  61   0.0000      -0.062164        -1.6916
  62   0.0000      -0.045616        -1.2413

MULLIKEN ATOMIC CHARGES
-----------------------
   0 C :    0.083417
   1 C :    0.083417
   2 H :    0.105138
   3 H :    0.105138
   4 C :    0.095816
   5 C :   -0.022454
   6 C :   -0.014960
   7 C :   -0.006788
   8 H :    0.031415
   9 C :   -0.007791
  10 H :    0.035049
  11 C :    0.019508
  12 H :    0.057205
  13 H :    0.058156
  14 H :    0.059515
  15 C :    0.095816
  16 C :   -0.022456
  17 C :   -0.014959
  18 C :   -0.006787
  19 H :    0.031415
  20 C :   -0.007791
  21 H :    0.035049
  22 C :    0.019508
  23 H :    0.057205
  24 H :    0.058156
  25 H :    0.059515
  26 C :    0.225444
  27 H :    0.123670
  28 N :   -0.167784
  29 N :   -0.167784
Sum of atomic charges:    1.0000000

LOEWDIN ATOMIC CHARGES
----------------------
   0 C :    0.031668
   1 C :    0.031668
   2 H :    0.061994
   3 H :    0.061994
   4 C :   -0.002561
   5 C :   -0.027273
   6 C :   -0.023230
   7 C :    0.002247
   8 H :    0.042338
   9 C :    0.003112
  10 H :    0.044560
  11 C :    0.007468
  12 H :    0.050718
  13 H :    0.051042
  14 H :    0.051188
  15 C :   -0.002560
  16 C :   -0.027274
  17 C :   -0.023230
  18 C :    0.002247
  19 H :    0.042338
  20 C :    0.003112
  21 H :    0.044560
  22 C :    0.007468
  23 H :    0.050718
  24 H :    0.051042
  25 H :    0.051188
  26 C :    0.125185
  27 H :    0.063355
  28 N :    0.112458
  29 N :    0.112458

  Mayer bond orders larger than 0.100000
B(  0-C ,  1-C ) :   1.6081 B(  0-C ,  2-H ) :   0.9823 B(  0-C , 28-N ) :   1.1642
B(  1-C ,  3-H ) :   0.9823 B(  1-C , 29-N ) :   1.1642 B(  4-C ,  5-C ) :   1.3979
B(  4-C ,  6-C ) :   1.3980 B(  4-C , 28-N ) :   0.8470 B(  5-C ,  7-C ) :   1.3996
B(  5-C ,  8-H ) :   0.9923 B(  6-C ,  9-C ) :   1.4031 B(  6-C , 10-H ) :   0.9931
B(  7-C , 11-C ) :   1.4054 B(  7-C , 12-H ) :   0.9826 B(  9-C , 11-C ) :   1.4014
B(  9-C , 13-H ) :   0.9828 B( 11-C , 14-H ) :   0.9893 B( 15-C , 16-C ) :   1.3979
B( 15-C , 17-C ) :   1.3980 B( 15-C , 29-N ) :   0.8470 B( 16-C , 18-C ) :   1.3996
B( 16-C , 19-H ) :   0.9923 B( 17-C , 20-C ) :   1.4031 B( 17-C , 21-H ) :   0.9931
B( 18-C , 22-C ) :   1.4054 B( 18-C , 23-H ) :   0.9826 B( 20-C , 22-C ) :   1.4014
B( 20-C , 24-H ) :   0.9828 B( 22-C , 25-H ) :   0.9893 B( 26-C , 27-H ) :   0.9705
B( 26-C , 28-N ) :   1.3437 B( 26-C , 29-N ) :   1.3437

Dispersion correction           -0.005721086
FINAL SINGLE POINT ENERGY      -688.044567472421

DIPOLE MOMENT
-------------
                                X             Y             Z
Electronic contribution:      0.00000      -0.00000      -1.65052
Nuclear contribution   :     -0.00000       0.00000       1.31039
                        -----------------------------------------
Total Dipole Moment    :      0.00000       0.00000      -0.34012
                        -----------------------------------------
Magnitude (a.u.)       :      0.34012
Magnitude (Debye)      :      0.86453

Dispersion correction in the Hessian             ... Starting D4

VIBRATIONAL FREQUENCIES
-----------------------

Scaling factor for frequencies =  1.000000000  (already applied!)

   0:         0.00 cm**-1
   1:         0.00 cm**-1
   2:         0.00 cm**-1
   3:         0.00 cm**-1
   4:         0.00 cm**-1
   5:         0.00 cm**-1
   6:        34.65 cm**-1
   7:        39.04 cm**-1
   8:        61.68 cm**-1
   9:        83.41 cm**-1
  10:       128.64 cm**-1
  11:       140.82 cm**-1
  12:       250.59 cm**-1
  13:       307.14 cm**-1
  14:       315.64 cm**-1
  15:       406.61 cm**-1
  16:       424.47 cm**-1
  17:       424.76 cm**-1
  18:       431.78 cm**-1
  19:       442.11 cm**-1
  20:       535.24 cm**-1
  21:       569.17 cm**-1
  22:       625.83 cm**-1
  23:       626.10 cm**-1
  24:       680.17 cm**-1
  25:       683.92 cm**-1
  26:       693.80 cm**-1
  27:       720.60 cm**-1
  28:       722.22 cm**-1
  29:       722.47 cm**-1
  30:       777.37 cm**-1
  31:       799.91 cm**-1
  32:       801.33 cm**-1
  33:       871.45 cm**-1
  34:       871.79 cm**-1
  35:       890.03 cm**-1
  36:       918.71 cm**-1
  37:       969.32 cm**-1
  38:       970.14 cm**-1
  39:       980.63 cm**-1
  40:       989.26 cm**-1
  41:      1025.67 cm**-1
  42:      1026.62 cm**-1
  43:      1029.54 cm**-1
  44:      1030.29 cm**-1
  45:      1061.85 cm**-1
  46:      1062.47 cm**-1
  47:      1063.34 cm**-1
  48:      1063.47 cm**-1
  49:      1088.87 cm**-1
  50:      1109.07 cm**-1
  51:      1115.46 cm**-1
  52:      1115.55 cm**-1
  53:      1147.45 cm**-1
  54:      1179.15 cm**-1
  55:      1179.22 cm**-1
  56:      1193.74 cm**-1
  57:      1194.98 cm**-1
  58:      1254.16 cm**-1
  59:      1284.61 cm**-1
  60:      1327.70 cm**-1
  61:      1335.95 cm**-1
  62:      1361.47 cm**-1
  63:      1362.72 cm**-1
  64:      1403.96 cm**-1
  65:      1434.36 cm**-1
  66:      1466.33 cm**-1
  67:      1514.22 cm**-1
  68:      1516.45 cm**-1
  69:      1546.05 cm**-1
  70:      1559.28 cm**-1
  71:      1644.92 cm**-1
  72:      1648.14 cm**-1
  73:      1704.06 cm**-1
  74:      1704.71 cm**-1
  75:      1705.75 cm**-1
  76:      1706.59 cm**-1
  77:      3221.26 cm**-1
  78:      3221.30 cm**-1
  79:      3223.29 cm**-1
  80:      3223.33 cm**-1
  81:      3234.03 cm**-1
  82:      3234.04 cm**-1
  83:      3242.77 cm**-1
  84:      3242.78 cm**-1
  85:      3250.22 cm**-1
  86:      3250.22 cm**-1
  87:      3304.17 cm**-1
  88:      3305.12 cm**-1
  89:      3323.23 cm**-1

IR SPECTRUM
-----------

 Mode   freq       eps      Int      T**2         TX        TY        TZ
       cm**-1   L/(mol*cm) km/mol    a.u.
----------------------------------------------------------------------------
  6:     34.65   0.000002    0.01  0.000016  ( 0.000001  0.000000 -0.004047)
  7:     39.04   0.000015    0.07  0.000118  (-0.010876  0.000458 -0.000000)
  8:     61.68   0.000019    0.10  0.000097  ( 0.000000  0.000000  0.009863)
  9:     83.41   0.000063    0.32  0.000235  ( 0.011748 -0.009866 -0.000000)
 10:    128.64   0.000076    0.38  0.000183  ( 0.000000 -0.000000 -0.013546)
 11:    140.82   0.000102    0.52  0.000227  (-0.015030  0.001057 -0.000000)
 12:    250.59   0.000054    0.27  0.000067  ( 0.000000  0.000000 -0.008181)
 13:    307.14   0.000197    1.00  0.000200  (-0.000000 -0.000000  0.014154)
 14:    315.64   0.000016    0.08  0.000015  ( 0.003793  0.000984  0.000000)
 15:    406.61   0.000157    0.79  0.000120  ( 0.005894 -0.009247  0.000000)
 16:    424.47   0.000006    0.03  0.000004  ( 0.000000 -0.000001 -0.002067)
 17:    424.76   0.000021    0.11  0.000015  ( 0.002123 -0.003285  0.000000)
 18:    431.78   0.000002    0.01  0.000002  (-0.000000 -0.000000  0.001244)
 19:    442.11   0.000313    1.58  0.000221  (-0.011998 -0.008757 -0.000000)
 20:    535.24   0.002468   12.47  0.001439  (-0.000000 -0.000000  0.037930)
 21:    569.17   0.001566    7.92  0.000859  ( 0.025499 -0.014443  0.000000)
 22:    625.83   0.000180    0.91  0.000090  ( 0.009186  0.002339 -0.000000)
 23:    626.10   0.000002    0.01  0.000001  (-0.000000 -0.000000 -0.001050)
 24:    680.17   0.000715    3.61  0.000328  (-0.000000  0.000000 -0.018116)
 25:    683.92   0.003126   15.80  0.001426  ( 0.037379  0.005389 -0.000000)
 26:    693.80   0.000071    0.36  0.000032  (-0.000000 -0.000000  0.005661)
 27:    720.60   0.001910    9.65  0.000827  (-0.006640 -0.027987 -0.000001)
 28:    722.22   0.006303   31.85  0.002723  (-0.000000  0.000001 -0.052185)
 29:    722.47   0.006818   34.46  0.002945  (-0.051577  0.016876  0.000000)
 30:    777.37   0.006640   33.56  0.002666  ( 0.051615 -0.001209 -0.000000)
 31:    799.91   0.006415   32.42  0.002503  ( 0.000006 -0.000003 -0.050025)
 32:    801.33   0.007525   38.03  0.002930  (-0.049639  0.021596 -0.000006)
 33:    871.45   0.000133    0.67  0.000048  (-0.003587 -0.005890 -0.000002)
 34:    871.79   0.000043    0.22  0.000015  (-0.000002 -0.000004  0.003913)
 35:    890.03   0.002404   12.15  0.000843  (-0.029031 -0.000058  0.000000)
 36:    918.71   0.000000    0.00  0.000000  ( 0.000000  0.000000 -0.000154)
 37:    969.32   0.000300    1.52  0.000097  (-0.000001  0.000002  0.009829)
 38:    970.14   0.000399    2.02  0.000128  ( 0.005460 -0.009930  0.000002)
 39:    980.63   0.000523    2.64  0.000166  ( 0.002703  0.012615 -0.000000)
 40:    989.26   0.000001    0.00  0.000000  (-0.000000 -0.000000 -0.000431)
 41:   1025.67   0.002267   11.46  0.000690  (-0.000234  0.026260 -0.000000)
 42:   1026.62   0.000162    0.82  0.000049  ( 0.000000  0.000001  0.007023)
 43:   1029.54   0.000252    1.27  0.000076  ( 0.000686  0.008707 -0.000000)
 44:   1030.29   0.000085    0.43  0.000026  (-0.000000  0.000000  0.005059)
 45:   1061.85   0.000110    0.56  0.000032  ( 0.000000  0.000000  0.005689)
 46:   1062.47   0.000144    0.73  0.000042  ( 0.000248  0.006509 -0.000000)
 47:   1063.34   0.000018    0.09  0.000005  (-0.000000 -0.000004  0.002315)
 48:   1063.47   0.000138    0.70  0.000040  ( 0.000784  0.006308  0.000001)
 49:   1088.87   0.013888   70.18  0.003980  (-0.003652 -0.062982  0.000000)
 50:   1109.07   0.001797    9.08  0.000506  ( 0.000000  0.000000  0.022484)
 51:   1115.46   0.001850    9.35  0.000518  (-0.022748  0.000251  0.000015)
 52:   1115.55   0.002443   12.35  0.000683  (-0.000013  0.000000 -0.026142)
 53:   1147.45   0.000519    2.62  0.000141  (-0.000000  0.000000 -0.011877)
 54:   1179.15   0.000023    0.12  0.000006  ( 0.000002  0.000000  0.002476)
 55:   1179.22   0.000054    0.27  0.000014  ( 0.003714  0.000709 -0.000001)
 56:   1193.74   0.000024    0.12  0.000006  ( 0.001026 -0.002283  0.000000)
 57:   1194.98   0.000016    0.08  0.000004  (-0.000000 -0.000000 -0.002036)
 58:   1254.16   0.002933   14.82  0.000730  ( 0.003699  0.026761  0.000000)
 59:   1284.61   0.005743   29.02  0.001395  (-0.001453  0.037321  0.000000)
 60:   1327.70   0.000099    0.50  0.000023  ( 0.000000  0.000000  0.004817)
 61:   1335.95   0.000074    0.37  0.000017  (-0.002666  0.003198  0.000000)
 62:   1361.47   0.000310    1.57  0.000071  ( 0.000001  0.000000 -0.008428)
 63:   1362.72   0.001210    6.11  0.000277  ( 0.015697  0.005530  0.000000)
 64:   1403.96   0.000944    4.77  0.000210  (-0.000000  0.000000 -0.014484)
 65:   1434.36   0.001765    8.92  0.000384  ( 0.007151  0.018244  0.000000)
 66:   1466.33   0.000160    0.81  0.000034  ( 0.000000  0.000000 -0.005838)
 67:   1514.22   0.001905    9.63  0.000393  (-0.019378 -0.004142  0.000000)
 68:   1516.45   0.001206    6.09  0.000248  (-0.000001 -0.000000 -0.015754)
 69:   1546.05   0.008848   44.71  0.001786  (-0.000017  0.042260  0.000000)
 70:   1559.28   0.002177   11.00  0.000436  (-0.000000 -0.000000  0.020871)
 71:   1644.92   0.000519    2.62  0.000099  (-0.000000  0.000003 -0.009926)
 72:   1648.14   0.044897  226.89  0.008501  (-0.001280  0.092191  0.000000)
 73:   1704.06   0.002007   10.14  0.000368  (-0.014272 -0.012801  0.000000)
 74:   1704.71   0.001659    8.38  0.000304  ( 0.003544 -0.017061 -0.000000)
 75:   1705.75   0.000198    1.00  0.000036  ( 0.000000 -0.000000  0.006023)
 76:   1706.59   0.000857    4.33  0.000157  (-0.000000 -0.000000 -0.012516)
 77:   3221.26   0.000754    3.81  0.000073  (-0.000084 -0.008545 -0.000002)
 78:   3221.30   0.000055    0.28  0.000005  ( 0.000000  0.000008 -0.002314)
 79:   3223.29   0.000119    0.60  0.000011  ( 0.001813  0.002864 -0.000000)
 80:   3223.33   0.000002    0.01  0.000000  (-0.000001 -0.000001 -0.000481)
 81:   3234.03   0.000096    0.49  0.000009  (-0.000405 -0.003021 -0.000036)
 82:   3234.04   0.000006    0.03  0.000001  ( 0.000019  0.000142 -0.000770)
 83:   3242.77   0.000001    0.01  0.000000  ( 0.000286 -0.000172  0.000000)
 84:   3242.78   0.000000    0.00  0.000000  (-0.000002  0.000001  0.000057)
 85:   3250.22   0.000000    0.00  0.000000  ( 0.000004  0.000005  0.000139)
 86:   3250.22   0.000002    0.01  0.000000  ( 0.000250  0.000297 -0.000002)
 87:   3304.17   0.007004   35.39  0.000661  (-0.000000  0.000000 -0.025719)
 88:   3305.12   0.004438   22.43  0.000419  ( 0.000781 -0.020455  0.000000)
 89:   3323.23   0.003601   18.20  0.000338  ( 0.000000  0.000000  0.018388)

--------------------------
THERMOCHEMISTRY AT 298.15K
--------------------------

Temperature         ... 298.15 K
Pressure            ... 1.00 atm
Total Mass          ... 221.28 AMU

Throughout the following assumptions are being made:
  (1) The electronic state is orbitally nondegenerate
  (2) There are no thermally accessible electronically excited states
  (3) Hindered rotations indicated by low frequency modes are not
      treated as such but are treated as vibrations and this may
      cause some error
  (4) All equations used are the standard statistical mechanics
      equations for an ideal gas
  (5) All vibrations are strictly harmonic

freq.      34.65  E(vib)   ...       0.54
freq.      39.04  E(vib)   ...       0.54
freq.      61.68  E(vib)   ...       0.51
freq.      83.41  E(vib)   ...       0.48
freq.     128.64  E(vib)   ...       0.43
freq.     140.82  E(vib)   ...       0.41
freq.     250.59  E(vib)   ...       0.30
freq.     307.14  E(vib)   ...       0.26
freq.     315.64  E(vib)   ...       0.25
freq.     406.61  E(vib)   ...       0.19
freq.     424.47  E(vib)   ...       0.18
freq.     424.76  E(vib)   ...       0.18
freq.     431.78  E(vib)   ...       0.18
freq.     442.11  E(vib)   ...       0.17
freq.     535.24  E(vib)   ...       0.13
freq.     569.17  E(vib)   ...       0.11
freq.     625.83  E(vib)   ...       0.09
freq.     626.10  E(vib)   ...       0.09
freq.     680.17  E(vib)   ...       0.08
freq.     683.92  E(vib)   ...       0.07
freq.     693.80  E(vib)   ...       0.07
freq.     720.60  E(vib)   ...       0.07
freq.     722.22  E(vib)   ...       0.07
freq.     722.47  E(vib)   ...       0.07
freq.     777.37  E(vib)   ...       0.05
freq.     799.91  E(vib)   ...       0.05
freq.     801.33  E(vib)   ...       0.05
freq.     871.45  E(vib)   ...       0.04
freq.     871.79  E(vib)   ...       0.04
freq.     890.03  E(vib)   ...       0.04
freq.     918.71  E(vib)   ...       0.03
freq.     969.32  E(vib)   ...       0.03
freq.     970.14  E(vib)   ...       0.03
freq.     980.63  E(vib)   ...       0.02
freq.     989.26  E(vib)   ...       0.02
freq.    1025.67  E(vib)   ...       0.02
freq.    1026.62  E(vib)   ...       0.02
freq.    1029.54  E(vib)   ...       0.02
freq.    1030.29  E(vib)   ...       0.02
freq.    1061.85  E(vib)   ...       0.02
freq.    1062.47  E(vib)   ...       0.02
freq.    1063.34  E(vib)   ...       0.02
freq.    1063.47  E(vib)   ...       0.02
freq.    1088.87  E(vib)   ...       0.02
freq.    1109.07  E(vib)   ...       0.02
freq.    1115.46  E(vib)   ...       0.01
freq.    1115.55  E(vib)   ...       0.01
freq.    1147.45  E(vib)   ...       0.01
freq.    1179.15  E(vib)   ...       0.01
freq.    1179.22  E(vib)   ...       0.01
freq.    1193.74  E(vib)   ...       0.01
freq.    1194.98  E(vib)   ...       0.01
freq.    1254.16  E(vib)   ...       0.01
freq.    1284.61  E(vib)   ...       0.01
freq.    1327.70  E(vib)   ...       0.01
freq.    1335.95  E(vib)   ...       0.01
freq.    1361.47  E(vib)   ...       0.01
freq.    1362.72  E(vib)   ...       0.01
freq.    1403.96  E(vib)   ...       0.00
freq.    1434.36  E(vib)   ...       0.00
freq.    1466.33  E(vib)   ...       0.00
freq.    1514.22  E(vib)   ...       0.00
freq.    1516.45  E(vib)   ...       0.00
freq.    1546.05  E(vib)   ...       0.00
freq.    1559.28  E(vib)   ...       0.00
freq.    1644.92  E(vib)   ...       0.00
freq.    1648.14  E(vib)   ...       0.00
freq.    1704.06  E(vib)   ...       0.00
freq.    1704.71  E(vib)   ...       0.00
freq.    1705.75  E(vib)   ...       0.00
freq.    1706.59  E(vib)   ...       0.00
freq.    3221.26  E(vib)   ...       0.00
freq.    3221.30  E(vib)   ...       0.00
freq.    3223.29  E(vib)   ...       0.00
freq.    3223.33  E(vib)   ...       0.00
freq.    3234.03  E(vib)   ...       0.00
freq.    3234.04  E(vib)   ...       0.00
freq.    3242.77  E(vib)   ...       0.00
freq.    3242.78  E(vib)   ...       0.00
freq.    3250.22  E(vib)   ...       0.00
freq.    3250.22  E(vib)   ...       0.00
freq.    3304.17  E(vib)   ...       0.00
freq.    3305.12  E(vib)   ...       0.00
freq.    3323.23  E(vib)   ...       0.00

------------
INNER ENERGY
------------

The inner energy is: U= E(el) + E(ZPE) + E(vib) + E(rot) + E(trans)
    E(el)   - is the total energy from the electronic structure calculation
              = E(kin-el) + E(nuc-el) + E(el-el) + E(nuc-nuc)
    E(ZPE)  - the the zero temperature vibrational energy from the frequency calculation
    E(vib)  - the the finite temperature correction to E(ZPE) due to population
              of excited vibrational states
    E(rot)  - is the rotational thermal energy
    E(trans)- is the translational thermal energy

Summary of contributions to the inner energy U:
Electronic energy                ...   -688.04456747 Eh
Zero point energy                ...      0.24912848 Eh     156.33 kcal/mol
Thermal vibrational correction   ...      0.00988290 Eh       6.20 kcal/mol
Thermal rotational correction    ...      0.00141627 Eh       0.89 kcal/mol
Thermal translational correction ...      0.00141627 Eh       0.89 kcal/mol
-----------------------------------------------------------------------
Total thermal energy                   -687.78272355 Eh

Summary of corrections to the electronic energy:
(perhaps to be used in another calculation)
Total thermal correction                  0.01271545 Eh       7.98 kcal/mol
Non-thermal (ZPE) correction              0.24912848 Eh     156.33 kcal/mol
-----------------------------------------------------------------------
Total correction                          0.26184393 Eh     164.31 kcal/mol

--------
ENTHALPY
--------

The enthalpy is H = U + kB*T
                kB is Boltzmann's constant
Total free energy                 ...   -687.78272355 Eh
Thermal Enthalpy correction       ...      0.00094421 Eh       0.59 kcal/mol
-----------------------------------------------------------------------
Total Enthalpy                    ...   -687.78177934 Eh

Note: Rotational entropy computed according to Herzberg
Infrared and Raman Spectra, Chapter V,1, Van Nostrand Reinhold, 1945
Point Group:  C2, Symmetry Number:   2
Rotational constants in cm-1:     0.052647     0.006719     0.006443

Vibrational entropy computed according to the QRRHO of S. Grimme
Chem.Eur.J. 2012 18 9955

-------
ENTROPY
-------

The entropy contributions are T*S = T*(S(el)+S(vib)+S(rot)+S(trans))
     S(el)   - electronic entropy
     S(vib)  - vibrational entropy

                             ****ORCA TERMINATED NORMALLY****
TOTAL RUN TIME: 0 days 0 hours 23 minutes 27 seconds 619 msec
