   * xtb version 6.6.1 (8d0f1dd) compiled by 'conda@1efc2f54142f' on 2023-08-01
          program call               : xtb struc.xyz --gfn2 --ceasefiles --opt

   ID    Z sym.   atoms
    1    6 C      1, 2, 5-7, 11-14, 27, 28
    2    7 N      3, 4
    3    1 H      8-10, 15-26, 29-34

          :  Hamiltonian                  GFN2-xTB          :
 * total energy  :   -39.7399977 Eh     change       -0.1698197E-10 Eh
 * total energy  :   -39.7630998 Eh     change       -0.2310203E-01 Eh
 * total energy  :   -39.7710096 Eh     change       -0.7909815E-02 Eh
 * total energy  :   -39.7742532 Eh     change       -0.3243591E-02 Eh
 * total energy  :   -39.7758083 Eh     change       -0.1555096E-02 Eh
 * total energy  :   -39.7766678 Eh     change       -0.8594923E-03 Eh
 * total energy  :   -39.7772651 Eh     change       -0.5973555E-03 Eh
 * total energy  :   -39.7777090 Eh     change       -0.4439134E-03 Eh
   *** GEOMETRY OPTIMIZATION CONVERGED AFTER 8 ITERATIONS ***

 final structure:
================
34
 xtb: 6.6.1 (8d0f1dd)
C           -2.20313210537328        0.23285903107117        1.21294270223724
C            2.31123973245828       -0.37903329210255       -0.81525665829318
N           -1.08332877685236        0.22891337742938        0.25370785756214
N            0.89655913532124       -0.00276506108573       -0.62854950072500
C           -1.18984919969272        0.51427274324468       -1.07622108643583
C            0.04186902572420        0.36178051544209       -1.62881901783269
C            0.18933029391190       -0.07304538395866        0.49580696214578
H           -2.11681941510862        0.78668710389429       -1.53819948536013
H            0.35348684424468        0.49473795633703       -2.64198819166654
H            0.59961874868631       -0.33562888565523        1.44807410692209
C           -1.74968776111081       -0.42002809557284        2.51588839542556
C            2.98832784071071        0.65922668455446       -1.70965837617098
C            2.32037668594114       -1.76064306072736       -1.47691900305465
C           -2.61901828086836        1.68407283003950        1.46257967192533
H           -1.00297662768599        0.18622358779887        3.02267593871634
H            2.90631470600738        1.65482812702658       -1.27985827541253
H            1.84956139208160       -1.72942692331803       -2.45591172679506
H           -1.79693265259526        2.26366237195897        1.87359486679192
H           -2.59681352419495       -0.51685026889251        3.18479691371328
H            2.56864859621834        0.67113479189134       -2.71053856906805
H            3.34724472940452       -2.09490808852173       -1.59984996798523
H           -3.43483483065207        1.69495149473975        2.18153010716509
H           -1.35426612578011       -1.41439486942518        2.33601425174610
H            4.04300378133568        0.41482453150277       -1.80194019070848
H            1.79641328324082       -2.48904621677567       -0.86137298460339
H           -2.95927422734294        2.16295637224283        0.54703861694111
C           -3.35657435691170       -0.55919604905886        0.59317436499894
C            3.01542672883194       -0.43378220935558        0.53789800104980
H           -4.07795541867425       -0.81335033681385        1.36843918425821
H            2.62302023519818       -1.23095842627760        1.16596401103519
H           -3.87701886439423        0.01980303942298       -0.16669768265532
H            2.93840157267367        0.51972048829751        1.05812004383295
H            4.07114292271394       -0.64148074137714        0.37908453622682
H           -3.00118988946697       -1.48733664117551        0.14873277157331

          :  Hamiltonian                  GFN2-xTB          :
         :: total energy             -39.777709029425 Eh    ::
         :: gradient norm              0.007197448917 Eh/a0 ::
         :: HOMO-LUMO gap              4.867315118966 eV    ::
         :: SCC energy               -40.386757380464 Eh    ::
         :: -> dispersion             -0.027869890389 Eh    ::
         :: repulsion energy           0.608778171619 Eh    ::

    * Orbital Energies and Occupations

         #    Occupation            Energy/Eh            Energy/eV
      -------------------------------------------------------------
         1        2.0000           -0.8776872             -23.8831
       ...           ...                  ...                  ...
        25        2.0000           -0.6008855             -16.3509
        26        2.0000           -0.5997426             -16.3198
        27        2.0000           -0.5991123             -16.3027
        28        2.0000           -0.5977900             -16.2667
        29        2.0000           -0.5928278             -16.1317
        30        2.0000           -0.5907016             -16.0738
        31        2.0000           -0.5899437             -16.0532
        32        2.0000           -0.5890058             -16.0277
        33        2.0000           -0.5809891             -15.8095
        34        2.0000           -0.5780974             -15.7308
        35        2.0000           -0.5779694             -15.7273
        36        2.0000           -0.5730712             -15.5941
        37        2.0000           -0.5712816             -15.5454 (HOMO)
        38                         -0.3924111             -10.6780 (LUMO)
        39                         -0.3569294              -9.7125
        40                         -0.1979162              -5.3856
        41                         -0.1466596              -3.9908
        42                         -0.0748823              -2.0377
        43                         -0.0596906              -1.6243
        44                         -0.0587520              -1.5987
        45                         -0.0512506              -1.3946
        46                         -0.0485534              -1.3212
        47                         -0.0388470              -1.0571
        48                         -0.0319478              -0.8693
       ...                                ...                  ...
        73                          0.4766424              12.9701
      -------------------------------------------------------------
                  HL-Gap            0.1788705 Eh            4.8673 eV

     #   Z          covCN         q      C6AA      α(0)
     1   6 C        3.836     0.075    19.303     6.251
     2   6 C        3.836     0.075    19.303     6.251
     3   7 N        2.868     0.046    20.440     6.715
     4   7 N        2.869     0.044    20.467     6.719
     5   6 C        3.076    -0.005    28.060     8.685
     6   6 C        3.073    -0.005    28.067     8.686
     7   6 C        3.105     0.050    26.735     8.472
     8   1 H        0.926     0.100     1.783     2.088
     9   1 H        0.927     0.100     1.788     2.091
    10   1 H        0.927     0.112     1.679     2.026
    11   6 C        3.760    -0.133    23.104     6.852
    12   6 C        3.759    -0.129    23.033     6.842
    13   6 C        3.760    -0.127    22.986     6.835
    14   6 C        3.759    -0.127    22.996     6.837
    15   1 H        0.925     0.058     2.224     2.332
    16   1 H        0.925     0.060     2.195     2.317
    17   1 H        0.925     0.060     2.194     2.316
    18   1 H        0.925     0.057     2.230     2.335
    19   1 H        0.925     0.081     1.965     2.192
    20   1 H        0.925     0.061     2.185     2.312
    21   1 H        0.925     0.080     1.976     2.198
    22   1 H        0.925     0.080     1.974     2.197
    23   1 H        0.925     0.057     2.236     2.338
    24   1 H        0.925     0.079     1.991     2.206
    25   1 H        0.925     0.055     2.263     2.352
    26   1 H        0.925     0.060     2.196     2.317
    27   6 C        3.759    -0.129    23.026     6.841
    28   6 C        3.759    -0.132    23.095     6.851
    29   1 H        0.925     0.079     1.992     2.207
    30   1 H        0.925     0.056     2.243     2.342
    31   1 H        0.925     0.064     2.158     2.297
    32   1 H        0.925     0.059     2.215     2.327
    33   1 H        0.925     0.081     1.964     2.191
    34   1 H        0.925     0.056     2.241     2.341

molecular dipole:
                 x           y           z       tot (Debye)
 q only:       -0.069       0.006      -0.048
   full:       -0.060       0.004      -0.037       0.179

           -------------------------------------------------
          | TOTAL ENERGY              -39.777709029425 Eh   |
          | GRADIENT NORM               0.007197448917 Eh/α |
          | HOMO-LUMO GAP               4.867315118966 eV   |
           -------------------------------------------------

 * finished run on 2024/02/12 at 14:13:52.309
