                         Program Version 5.0.4 -  RELEASE  -
|  1> # ORCA 5.0.4 - /users/bwb16179/postgrad/2024_06/pKa_Reviewer_Comments/Gas_Z=1/2_prot.inp # write input file
|  2> # Basic Mode
|  3> #
|  4> ! Opt Freq wB97X Def2-TZVP D4 SlowConv TightSCF Defgrid2 Def2/J RIJCOSX
|  5>
|  6> %PAL NPROCS 4 END
|  7>
|  8> %maxcore 4500
|  9>
| 10> %geom
| 11> Maxiter 150
| 12> END
| 13>
| 14> * xyzfile 1 1 2_prot.xyz
| 15>
| 16>                          ****END OF INPUT****
 Total Charge           Charge          ....    1
 Multiplicity           Mult            ....    1
 Number of Electrons    NEL             ....   68
Dispersion correction           -0.002861139
FINAL SINGLE POINT ENERGY      -383.914687647782
Dispersion correction            ... Starting D4
Dispersion correction           -0.002866979
FINAL SINGLE POINT ENERGY      -383.915633707563
Dispersion correction            ... Starting D4
Dispersion correction           -0.002867288
FINAL SINGLE POINT ENERGY      -383.915639278616
Dispersion correction            ... Starting D4
Dispersion correction           -0.002867265
FINAL SINGLE POINT ENERGY      -383.915640344034
Dispersion correction            ... Starting D4
                    ***********************HURRAY********************

CARTESIAN COORDINATES (ANGSTROEM)
---------------------------------
  C     -0.052505    0.673917   -0.662203
  C      0.000464   -0.686437   -0.656837
  N     -0.097694    1.073605    0.662356
  N     -0.012388   -1.078082    0.670799
  C     -0.071731    0.000092    1.437497
  C     -0.165850    2.452690    1.128551
  C      0.034053   -2.454729    1.146921
  H     -1.052315    2.933967    0.719542
  H      0.024601   -2.453457    2.234076
  H     -0.833192   -3.000566    0.779513
  H      0.724514    2.993934    0.813178
  H     -0.223765    2.456303    2.214210
  H      0.945816   -2.933760    0.794772
  H     -0.095890    0.003457    2.515553
  C     -0.065109    1.649231   -1.782862
  C      0.061673   -1.669063   -1.769436
  H      0.795844    2.318577   -1.737108
  H      0.967097   -2.276107   -1.715544
  H     -0.800387   -2.338432   -1.756111
  H     -0.971675    2.256920   -1.771883
  H     -0.028294    1.123896   -2.734641
  H      0.065045   -1.149954   -2.725323

 Multiplicity           Mult            ....    1
 Number of Electrons    NEL             ....   68
 Basis Dimension        Dim             ....  357

ORBITAL ENERGIES
----------------

  NO   OCC          E(Eh)            E(eV)
   0   2.0000     -14.642091      -398.4316
   1   2.0000     -14.642062      -398.4308
   2   2.0000     -10.510907      -286.0163
   3   2.0000     -10.463383      -284.7231
   4   2.0000     -10.462693      -284.7044
   5   2.0000     -10.455942      -284.5206
   6   2.0000     -10.455914      -284.5199
   7   2.0000     -10.406817      -283.1839
   8   2.0000     -10.406803      -283.1835
   9   2.0000      -1.366577       -37.1864
  10   2.0000      -1.246801       -33.9272
  11   2.0000      -1.107501       -30.1366
  12   2.0000      -1.064410       -28.9641
  13   2.0000      -1.027257       -27.9531
  14   2.0000      -0.980023       -26.6678
  15   2.0000      -0.977325       -26.5944
  16   2.0000      -0.880316       -23.9546
  17   2.0000      -0.876804       -23.8590
  18   2.0000      -0.813891       -22.1471
  19   2.0000      -0.791063       -21.5259
  20   2.0000      -0.754259       -20.5244
  21   2.0000      -0.738872       -20.1057
  22   2.0000      -0.732205       -19.9243
  23   2.0000      -0.699533       -19.0353
  24   2.0000      -0.684871       -18.6363
  25   2.0000      -0.683204       -18.5909
  26   2.0000      -0.679677       -18.4949
  27   2.0000      -0.667183       -18.1550
  28   2.0000      -0.657038       -17.8789
  29   2.0000      -0.656332       -17.8597
  30   2.0000      -0.646019       -17.5791
  31   2.0000      -0.640148       -17.4193
  32   2.0000      -0.556876       -15.1534
  33   2.0000      -0.494739       -13.4625
  34   0.0000      -0.087554        -2.3825
  35   0.0000      -0.037859        -1.0302
  36   0.0000      -0.030012        -0.8167
  37   0.0000      -0.011128        -0.3028
  38   0.0000      -0.003037        -0.0826

MULLIKEN ATOMIC CHARGES
-----------------------
   0 C :    0.012574
   1 C :    0.011997
   2 N :   -0.092892
   3 N :   -0.092780
   4 C :    0.119935
   5 C :   -0.291712
   6 C :   -0.291848
   7 H :    0.177764
   8 H :    0.162426
   9 H :    0.179895
  10 H :    0.180823
  11 H :    0.162349
  12 H :    0.178740
  13 H :    0.240701
  14 C :   -0.300362
  15 C :   -0.300241
  16 H :    0.163587
  17 H :    0.163346
  18 H :    0.163638
  19 H :    0.163515
  20 H :    0.144276
  21 H :    0.144270
Sum of atomic charges:    1.0000000

LOEWDIN ATOMIC CHARGES
----------------------
   0 C :   -0.174603
   1 C :   -0.174653
   2 N :    0.276663
   3 N :    0.276670
   4 C :   -0.155611
   5 C :   -0.217061
   6 C :   -0.216987
   7 H :    0.137000
   8 H :    0.137677
   9 H :    0.137071
  10 H :    0.137077
  11 H :    0.137680
  12 H :    0.137029
  13 H :    0.162119
  14 C :   -0.231241
  15 C :   -0.231220
  16 H :    0.143500
  17 H :    0.143225
  18 H :    0.143444
  19 H :    0.143182
  20 H :    0.144520
  21 H :    0.144519

  Mayer bond orders larger than 0.100000
B(  0-C ,  1-C ) :   1.7372 B(  0-C ,  2-N ) :   1.1610 B(  0-C , 14-C ) :   0.8622
B(  1-C ,  3-N ) :   1.1609 B(  1-C , 15-C ) :   0.8623 B(  2-N ,  4-C ) :   1.3977
B(  2-N ,  5-C ) :   0.8552 B(  3-N ,  4-C ) :   1.3979 B(  3-N ,  6-C ) :   0.8551
B(  4-C , 13-H ) :   0.9019 B(  5-C ,  7-H ) :   0.9603 B(  5-C , 10-H ) :   0.9601
B(  5-C , 11-H ) :   0.9590 B(  6-C ,  8-H ) :   0.9589 B(  6-C ,  9-H ) :   0.9601
B(  6-C , 12-H ) :   0.9603 B( 14-C , 16-H ) :   0.9680 B( 14-C , 19-H ) :   0.9701
B( 14-C , 20-H ) :   0.9896 B( 15-C , 17-H ) :   0.9694 B( 15-C , 18-H ) :   0.9687
B( 15-C , 21-H ) :   0.9896

Dispersion correction           -0.002867185
FINAL SINGLE POINT ENERGY      -383.915640381728

DIPOLE MOMENT
-------------
                                X             Y             Z
Electronic contribution:     -0.06499       0.01060       3.20866
Nuclear contribution   :      0.04774      -0.00852      -2.44716
                        -----------------------------------------
Total Dipole Moment    :     -0.01725       0.00208       0.76150
                        -----------------------------------------
Magnitude (a.u.)       :      0.76170
Magnitude (Debye)      :      1.93608

Dispersion correction in the Hessian             ... Starting D4

VIBRATIONAL FREQUENCIES
-----------------------

Scaling factor for frequencies =  1.000000000  (already applied!)

   0:         0.00 cm**-1
   1:         0.00 cm**-1
   2:         0.00 cm**-1
   3:         0.00 cm**-1
   4:         0.00 cm**-1
   5:         0.00 cm**-1
   6:        77.51 cm**-1
   7:        87.04 cm**-1
   8:       139.35 cm**-1
   9:       142.03 cm**-1
  10:       154.84 cm**-1
  11:       184.35 cm**-1
  12:       277.19 cm**-1
  13:       279.48 cm**-1
  14:       291.86 cm**-1
  15:       303.34 cm**-1
  16:       324.30 cm**-1
  17:       538.75 cm**-1
  18:       573.24 cm**-1
  19:       615.64 cm**-1
  20:       646.64 cm**-1
  21:       691.77 cm**-1
  22:       736.02 cm**-1
  23:       854.06 cm**-1
  24:       857.27 cm**-1
  25:       983.03 cm**-1
  26:      1066.09 cm**-1
  27:      1086.23 cm**-1
  28:      1089.58 cm**-1
  29:      1113.71 cm**-1
  30:      1127.21 cm**-1
  31:      1154.84 cm**-1
  32:      1160.95 cm**-1
  33:      1188.53 cm**-1
  34:      1242.26 cm**-1
  35:      1293.30 cm**-1
  36:      1385.25 cm**-1
  37:      1426.80 cm**-1
  38:      1442.16 cm**-1
  39:      1465.52 cm**-1
  40:      1473.08 cm**-1
  41:      1475.99 cm**-1
  42:      1477.70 cm**-1
  43:      1480.34 cm**-1
  44:      1484.17 cm**-1
  45:      1488.99 cm**-1
  46:      1490.63 cm**-1
  47:      1493.56 cm**-1
  48:      1500.49 cm**-1
  49:      1530.27 cm**-1
  50:      1540.20 cm**-1
  51:      1657.98 cm**-1
  52:      1719.79 cm**-1
  53:      3082.28 cm**-1
  54:      3082.72 cm**-1
  55:      3101.54 cm**-1
  56:      3101.60 cm**-1
  57:      3150.23 cm**-1
  58:      3150.39 cm**-1
  59:      3187.36 cm**-1
  60:      3189.54 cm**-1
  61:      3189.68 cm**-1
  62:      3190.43 cm**-1
  63:      3204.56 cm**-1
  64:      3204.76 cm**-1
  65:      3298.79 cm**-1

IR SPECTRUM
-----------

 Mode   freq       eps      Int      T**2         TX        TY        TZ
       cm**-1   L/(mol*cm) km/mol    a.u.
----------------------------------------------------------------------------
  6:     77.51   0.000034    0.17  0.000139  (-0.011700 -0.001051  0.000936)
  7:     87.04   0.000004    0.02  0.000015  (-0.003826  0.000075  0.000298)
  8:    139.35   0.000094    0.48  0.000211  ( 0.014522 -0.000320  0.000213)
  9:    142.03   0.000176    0.89  0.000387  (-0.019667 -0.000396 -0.000132)
 10:    154.84   0.000001    0.00  0.000001  (-0.001149 -0.000320  0.000065)
 11:    184.35   0.000969    4.90  0.001641  ( 0.040445  0.001902  0.001106)
 12:    277.19   0.000093    0.47  0.000105  (-0.001904  0.002796  0.009683)
 13:    279.48   0.000049    0.25  0.000055  ( 0.001150  0.005415 -0.004914)
 14:    291.86   0.000083    0.42  0.000089  ( 0.002496  0.000063  0.009094)
 15:    303.34   0.001033    5.22  0.001063  (-0.032563 -0.001349 -0.000589)
 16:    324.30   0.000001    0.01  0.000001  (-0.001026 -0.000035  0.000054)
 17:    538.75   0.000135    0.68  0.000078  (-0.000231  0.008850 -0.000064)
 18:    573.24   0.000389    1.96  0.000212  (-0.000529  0.014538 -0.000095)
 19:    615.64   0.000451    2.28  0.000228  ( 0.000335 -0.000052 -0.015111)
 20:    646.64   0.001892    9.56  0.000913  (-0.030179 -0.001281 -0.000686)
 21:    691.77   0.000000    0.00  0.000000  ( 0.000107  0.000014  0.000269)
 22:    736.02   0.000630    3.18  0.000267  (-0.000346  0.000079  0.016339)
 23:    854.06   0.001855    9.37  0.000678  ( 0.000153 -0.026034  0.000045)
 24:    857.27   0.002655   13.41  0.000966  (-0.031071 -0.000490 -0.000812)
 25:    983.03   0.000022    0.11  0.000007  ( 0.000032 -0.000067 -0.002630)
 26:   1066.09   0.000118    0.59  0.000034  (-0.005836 -0.000609 -0.000033)
 27:   1086.23   0.000004    0.02  0.000001  (-0.000490 -0.000946  0.000082)
 28:   1089.58   0.000082    0.41  0.000023  (-0.000030 -0.004845 -0.000034)
 29:   1113.71   0.000002    0.01  0.000001  ( 0.000102 -0.000546 -0.000566)
 30:   1127.21   0.002040   10.31  0.000565  ( 0.001020 -0.023744  0.000158)
 31:   1154.84   0.000000    0.00  0.000000  ( 0.000094 -0.000290 -0.000077)
 32:   1160.95   0.000003    0.02  0.000001  (-0.000832  0.000419  0.000112)
 33:   1188.53   0.000059    0.30  0.000015  ( 0.000079  0.000053 -0.003936)
 34:   1242.26   0.010276   51.93  0.002581  ( 0.001981 -0.050769  0.000186)
 35:   1293.30   0.000185    0.93  0.000045  (-0.000286  0.006667  0.000007)
 36:   1385.25   0.000071    0.36  0.000016  ( 0.000116 -0.000084  0.003993)
 37:   1426.80   0.001078    5.45  0.000236  (-0.000827  0.015320  0.000601)
 38:   1442.16   0.001266    6.40  0.000274  (-0.001422 -0.000653  0.016476)
 39:   1465.52   0.001201    6.07  0.000256  (-0.000520  0.015980  0.000411)
 40:   1473.08   0.000771    3.90  0.000163  ( 0.001900 -0.001176 -0.012584)
 41:   1475.99   0.000057    0.29  0.000012  (-0.002859  0.000726  0.001836)
 42:   1477.70   0.000169    0.86  0.000036  (-0.000833  0.001747 -0.005658)
 43:   1480.34   0.000020    0.10  0.000004  ( 0.000067 -0.000667 -0.001958)
 44:   1484.17   0.009179   46.39  0.001930  ( 0.007712 -0.000670 -0.043244)
 45:   1488.99   0.001190    6.01  0.000249  (-0.002842  0.014208 -0.006285)
 46:   1490.63   0.002575   13.01  0.000539  (-0.022137  0.006914  0.001093)
 47:   1493.56   0.010917   55.17  0.002281  ( 0.046605  0.006102  0.008465)
 48:   1500.49   0.000649    3.28  0.000135  ( 0.000488  0.000501 -0.011594)
 49:   1530.27   0.000185    0.94  0.000038  (-0.000217 -0.006139  0.000100)
 50:   1540.20   0.000151    0.76  0.000031  ( 0.000382  0.000017  0.005517)
 51:   1657.98   0.020225  102.21  0.003807  (-0.002482  0.061648 -0.000234)
 52:   1719.79   0.005540   28.00  0.001005  ( 0.000675 -0.000175 -0.031697)
 53:   3082.28   0.000872    4.41  0.000088  (-0.000271  0.009393 -0.000191)
 54:   3082.72   0.000132    0.67  0.000013  ( 0.000054 -0.000407 -0.003637)
 55:   3101.54   0.001175    5.94  0.000118  (-0.000385  0.010664 -0.002087)
 56:   3101.60   0.000514    2.60  0.000052  (-0.000350  0.006302  0.003452)
 57:   3150.23   0.000275    1.39  0.000027  ( 0.005215  0.000151  0.000066)
 58:   3150.39   0.000416    2.10  0.000041  ( 0.006414  0.000249  0.000149)
 59:   3187.36   0.000248    1.25  0.000024  ( 0.000215 -0.004920 -0.000028)
 60:   3189.54   0.000067    0.34  0.000007  (-0.002561 -0.000095 -0.000035)
 61:   3189.68   0.000132    0.67  0.000013  (-0.003586 -0.000159 -0.000119)
 62:   3190.43   0.000444    2.24  0.000043  (-0.000178 -0.000009  0.006586)
 63:   3204.56   0.000122    0.62  0.000012  (-0.000034  0.001312 -0.003194)
 64:   3204.76   0.000117    0.59  0.000011  ( 0.000180 -0.001354 -0.003085)
 65:   3298.79   0.004787   24.19  0.000453  ( 0.000470 -0.000062 -0.021275)

--------------------------
THERMOCHEMISTRY AT 298.15K
--------------------------

Temperature         ... 298.15 K
Pressure            ... 1.00 atm
Total Mass          ... 125.19 AMU

Throughout the following assumptions are being made:
  (1) The electronic state is orbitally nondegenerate
  (2) There are no thermally accessible electronically excited states
  (3) Hindered rotations indicated by low frequency modes are not
      treated as such but are treated as vibrations and this may
      cause some error
  (4) All equations used are the standard statistical mechanics
      equations for an ideal gas
  (5) All vibrations are strictly harmonic

freq.      77.51  E(vib)   ...       0.49
freq.      87.04  E(vib)   ...       0.48
freq.     139.35  E(vib)   ...       0.42
freq.     142.03  E(vib)   ...       0.41
freq.     154.84  E(vib)   ...       0.40
freq.     184.35  E(vib)   ...       0.37
freq.     277.19  E(vib)   ...       0.28
freq.     279.48  E(vib)   ...       0.28
freq.     291.86  E(vib)   ...       0.27
freq.     303.34  E(vib)   ...       0.26
freq.     324.30  E(vib)   ...       0.25
freq.     538.75  E(vib)   ...       0.12
freq.     573.24  E(vib)   ...       0.11
freq.     615.64  E(vib)   ...       0.10
freq.     646.64  E(vib)   ...       0.09
freq.     691.77  E(vib)   ...       0.07
freq.     736.02  E(vib)   ...       0.06
freq.     854.06  E(vib)   ...       0.04
freq.     857.27  E(vib)   ...       0.04
freq.     983.03  E(vib)   ...       0.02
freq.    1066.09  E(vib)   ...       0.02
freq.    1086.23  E(vib)   ...       0.02
freq.    1089.58  E(vib)   ...       0.02
freq.    1113.71  E(vib)   ...       0.01
freq.    1127.21  E(vib)   ...       0.01
freq.    1154.84  E(vib)   ...       0.01
freq.    1160.95  E(vib)   ...       0.01
freq.    1188.53  E(vib)   ...       0.01
freq.    1242.26  E(vib)   ...       0.01
freq.    1293.30  E(vib)   ...       0.01
freq.    1385.25  E(vib)   ...       0.00
freq.    1426.80  E(vib)   ...       0.00
freq.    1442.16  E(vib)   ...       0.00
freq.    1465.52  E(vib)   ...       0.00
freq.    1473.08  E(vib)   ...       0.00
freq.    1475.99  E(vib)   ...       0.00
freq.    1477.70  E(vib)   ...       0.00
freq.    1480.34  E(vib)   ...       0.00
freq.    1484.17  E(vib)   ...       0.00
freq.    1488.99  E(vib)   ...       0.00
freq.    1490.63  E(vib)   ...       0.00
freq.    1493.56  E(vib)   ...       0.00
freq.    1500.49  E(vib)   ...       0.00
freq.    1530.27  E(vib)   ...       0.00
freq.    1540.20  E(vib)   ...       0.00
freq.    1657.98  E(vib)   ...       0.00
freq.    1719.79  E(vib)   ...       0.00
freq.    3082.28  E(vib)   ...       0.00
freq.    3082.72  E(vib)   ...       0.00
freq.    3101.54  E(vib)   ...       0.00
freq.    3101.60  E(vib)   ...       0.00
freq.    3150.23  E(vib)   ...       0.00
freq.    3150.39  E(vib)   ...       0.00
freq.    3187.36  E(vib)   ...       0.00
freq.    3189.54  E(vib)   ...       0.00
freq.    3189.68  E(vib)   ...       0.00
freq.    3190.43  E(vib)   ...       0.00
freq.    3204.56  E(vib)   ...       0.00
freq.    3204.76  E(vib)   ...       0.00
freq.    3298.79  E(vib)   ...       0.00

------------
INNER ENERGY
------------

The inner energy is: U= E(el) + E(ZPE) + E(vib) + E(rot) + E(trans)
    E(el)   - is the total energy from the electronic structure calculation
              = E(kin-el) + E(nuc-el) + E(el-el) + E(nuc-nuc)
    E(ZPE)  - the the zero temperature vibrational energy from the frequency calculation
    E(vib)  - the the finite temperature correction to E(ZPE) due to population
              of excited vibrational states
    E(rot)  - is the rotational thermal energy
    E(trans)- is the translational thermal energy

Summary of contributions to the inner energy U:
Electronic energy                ...   -383.91564038 Eh
Zero point energy                ...      0.19808033 Eh     124.30 kcal/mol
Thermal vibrational correction   ...      0.00754962 Eh       4.74 kcal/mol
Thermal rotational correction    ...      0.00141627 Eh       0.89 kcal/mol
Thermal translational correction ...      0.00141627 Eh       0.89 kcal/mol
-----------------------------------------------------------------------
Total thermal energy                   -383.70717790 Eh

Summary of corrections to the electronic energy:
(perhaps to be used in another calculation)
Total thermal correction                  0.01038216 Eh       6.51 kcal/mol
Non-thermal (ZPE) correction              0.19808033 Eh     124.30 kcal/mol
-----------------------------------------------------------------------
Total correction                          0.20846249 Eh     130.81 kcal/mol

--------
ENTHALPY
--------

The enthalpy is H = U + kB*T
                kB is Boltzmann's constant
Total free energy                 ...   -383.70717790 Eh
Thermal Enthalpy correction       ...      0.00094421 Eh       0.59 kcal/mol
-----------------------------------------------------------------------
Total Enthalpy                    ...   -383.70623369 Eh

Note: Only C1 symmetry has been detected, increase convergence thresholds
      if your molecule has a higher symmetry. Symmetry factor of 1.0 is
      used for the rotational entropy correction.

Note: Rotational entropy computed according to Herzberg
Infrared and Raman Spectra, Chapter V,1, Van Nostrand Reinhold, 1945
Point Group:  C1, Symmetry Number:   1
Rotational constants in cm-1:     0.081403     0.050675     0.031985

Vibrational entropy computed according to the QRRHO of S. Grimme
Chem.Eur.J. 2012 18 9955

-------
ENTROPY
-------

The entropy contributions are T*S = T*(S(el)+S(vib)+S(rot)+S(trans))
     S(el)   - electronic entropy
     S(vib)  - vibrational entropy
     S(rot)  - rotational entropy
     S(trans)- translational entropy
The entropies will be listed as multiplied by the temperature to get
units of energy

Electronic entropy                ...      0.00000000 Eh      0.00 kcal/mol
Vibrational entropy               ...      0.01321168 Eh      8.29 kcal/mol
Rotational entropy                ...      0.01372807 Eh      8.61 kcal/mol
Translational entropy             ...      0.01918948 Eh     12.04 kcal/mol
-----------------------------------------------------------------------
Final entropy term                ...      0.04612923 Eh     28.95 kcal/mol

In case the symmetry of your molecule has not been determined correctly
or in case you have a reason to use a different symmetry number we print
out the resulting rotational entropy values for sn=1,12 :
 --------------------------------------------------------
|  sn= 1 | S(rot)=       0.01372807 Eh      8.61 kcal/mol|
|  sn= 2 | S(rot)=       0.01307361 Eh      8.20 kcal/mol|
|  sn= 3 | S(rot)=       0.01269078 Eh      7.96 kcal/mol|

                             ****ORCA TERMINATED NORMALLY****
TOTAL RUN TIME: 0 days 0 hours 29 minutes 40 seconds 570 msec
