                         Program Version 5.0.4 -  RELEASE  -
|  1> # ORCA 5.0.4 - /users/bwb16179/postgrad/2024_06/pKa_Reviewer_Comments/Gas_Z=1/11_prot.inp # write input file
|  2> # Basic Mode
|  3> #
|  4> ! Opt Freq wB97X Def2-TZVP D4 SlowConv TightSCF Defgrid2 Def2/J RIJCOSX
|  5>
|  6> %PAL NPROCS 4 END
|  7>
|  8> %maxcore 4500
|  9>
| 10> %geom
| 11> Maxiter 150
| 12> END
| 13>
| 14> * xyzfile 1 1 11_prot.xyz
| 15>
| 16>                          ****END OF INPUT****
 Total Charge           Charge          ....    1
 Multiplicity           Mult            ....    1
 Number of Electrons    NEL             ....   56
Dispersion correction           -0.002063190
FINAL SINGLE POINT ENERGY      -307.659989536492
Dispersion correction            ... Starting D4
Dispersion correction           -0.002067003
FINAL SINGLE POINT ENERGY      -307.660839988185
Dispersion correction            ... Starting D4
Dispersion correction           -0.002066597
FINAL SINGLE POINT ENERGY      -307.660849752104
Dispersion correction            ... Starting D4
Dispersion correction           -0.002066781
FINAL SINGLE POINT ENERGY      -307.660854450043
Dispersion correction            ... Starting D4
                    ***********************HURRAY********************

CARTESIAN COORDINATES (ANGSTROEM)
---------------------------------
  C      0.000001    0.000000    0.656073
  N     -0.006113    1.191316    0.106719
  N      0.006113   -1.191316    0.106719
  C      0.221366    1.500934   -1.304442
  C     -0.221366   -1.500934   -1.304442
  H      0.735943    2.459151   -1.350162
  H     -0.735944   -2.459151   -1.350162
  H      0.857807    0.754694   -1.768994
  H     -0.857806   -0.754694   -1.768994
  H     -0.719551    1.588373   -1.848956
  H      0.719551   -1.588374   -1.848956
  C     -0.221293    2.363550    0.958688
  C      0.221293   -2.363550    0.958688
  H     -0.383014    2.058971    1.990045
  H      0.383014   -2.058971    1.990045
  H      0.647998    3.018998    0.905851
  H     -0.647999   -3.018998    0.905851
  H     -1.101452    2.905940    0.612379
  H      1.101451   -2.905941    0.612379
  H      0.000001    0.000000    1.741139

 Multiplicity           Mult            ....    1
 Number of Electrons    NEL             ....   56
 Basis Dimension        Dim             ....  295

ORBITAL ENERGIES
----------------

  NO   OCC          E(Eh)            E(eV)
   0   2.0000     -14.629940      -398.1009
   1   2.0000     -14.629923      -398.1004
   2   2.0000     -10.540146      -286.8119
   3   2.0000     -10.454920      -284.4928
   4   2.0000     -10.454919      -284.4928
   5   2.0000     -10.451220      -284.3922
   6   2.0000     -10.451219      -284.3921
   7   2.0000      -1.319631       -35.9090
   8   2.0000      -1.254419       -34.1345
   9   2.0000      -1.061873       -28.8950
  10   2.0000      -1.035396       -28.1746
  11   2.0000      -1.020038       -27.7567
  12   2.0000      -0.970591       -26.4111
  13   2.0000      -0.874157       -23.7870
  14   2.0000      -0.814630       -22.1672
  15   2.0000      -0.809444       -22.0261
  16   2.0000      -0.785443       -21.3730
  17   2.0000      -0.747299       -20.3350
  18   2.0000      -0.733039       -19.9470
  19   2.0000      -0.708678       -19.2841
  20   2.0000      -0.689800       -18.7704
  21   2.0000      -0.685793       -18.6614
  22   2.0000      -0.675236       -18.3741
  23   2.0000      -0.675092       -18.3702
  24   2.0000      -0.666039       -18.1238
  25   2.0000      -0.643703       -17.5160
  26   2.0000      -0.629128       -17.1194
  27   2.0000      -0.514719       -14.0062
  28   0.0000      -0.100369        -2.7312
  29   0.0000      -0.041993        -1.1427
  30   0.0000      -0.010273        -0.2795
  31   0.0000      -0.004187        -0.1139
  32   0.0000       0.014385         0.3914

MULLIKEN ATOMIC CHARGES
-----------------------
   0 C :    0.159162
   1 N :   -0.083426
   2 N :   -0.083423
   3 C :   -0.349194
   4 C :   -0.349198
   5 H :    0.175369
   6 H :    0.175373
   7 H :    0.172547
   8 H :    0.172548
   9 H :    0.196086
  10 H :    0.196087
  11 C :   -0.272124
  12 C :   -0.272129
  13 H :    0.142115
  14 H :    0.142115
  15 H :    0.175744
  16 H :    0.175744
  17 H :    0.176701
  18 H :    0.176701
  19 H :    0.173201
Sum of atomic charges:    1.0000000

LOEWDIN ATOMIC CHARGES
----------------------
   0 C :   -0.177468
   1 N :    0.186221
   2 N :    0.186221
   3 C :   -0.245873
   4 C :   -0.245874
   5 H :    0.139081
   6 H :    0.139081
   7 H :    0.131680
   8 H :    0.131680
   9 H :    0.132075
  10 H :    0.132075
  11 C :   -0.236399
  12 C :   -0.236400
  13 H :    0.130765
  14 H :    0.130765
  15 H :    0.132560
  16 H :    0.132560
  17 H :    0.134925
  18 H :    0.134925
  19 H :    0.167402

  Mayer bond orders larger than 0.100000
B(  0-C ,  1-N ) :   1.4915 B(  0-C ,  2-N ) :   1.4915 B(  0-C , 19-H ) :   0.9234
B(  1-N ,  3-C ) :   0.8630 B(  1-N , 11-C ) :   0.8738 B(  2-N ,  4-C ) :   0.8630
B(  2-N , 12-C ) :   0.8738 B(  3-C ,  5-H ) :   0.9597 B(  3-C ,  7-H ) :   0.9557
B(  3-C ,  9-H ) :   0.9582 B(  4-C ,  6-H ) :   0.9597 B(  4-C ,  8-H ) :   0.9557
B(  4-C , 10-H ) :   0.9582 B( 11-C , 13-H ) :   0.9628 B( 11-C , 15-H ) :   0.9640
B( 11-C , 17-H ) :   0.9569 B( 12-C , 14-H ) :   0.9628 B( 12-C , 16-H ) :   0.9640
B( 12-C , 18-H ) :   0.9569

Dispersion correction           -0.002066594
FINAL SINGLE POINT ENERGY      -307.660855731415

DIPOLE MOMENT
-------------
                                X             Y             Z
Electronic contribution:      0.00000       0.00000       1.38335
Nuclear contribution   :     -0.00000      -0.00000      -1.27053
                        -----------------------------------------
Total Dipole Moment    :     -0.00000       0.00000       0.11282
                        -----------------------------------------
Magnitude (a.u.)       :      0.11282
Magnitude (Debye)      :      0.28677

Dispersion correction in the Hessian             ... Starting D4

VIBRATIONAL FREQUENCIES
-----------------------

Scaling factor for frequencies =  1.000000000  (already applied!)

   0:         0.00 cm**-1
   1:         0.00 cm**-1
   2:         0.00 cm**-1
   3:         0.00 cm**-1
   4:         0.00 cm**-1
   5:         0.00 cm**-1
   6:        59.78 cm**-1
   7:       143.79 cm**-1
   8:       146.60 cm**-1
   9:       157.47 cm**-1
  10:       177.50 cm**-1
  11:       220.10 cm**-1
  12:       275.80 cm**-1
  13:       308.17 cm**-1
  14:       345.49 cm**-1
  15:       408.45 cm**-1
  16:       442.99 cm**-1
  17:       496.22 cm**-1
  18:       618.78 cm**-1
  19:       881.12 cm**-1
  20:       896.47 cm**-1
  21:      1018.85 cm**-1
  22:      1085.59 cm**-1
  23:      1087.35 cm**-1
  24:      1119.96 cm**-1
  25:      1133.46 cm**-1
  26:      1135.79 cm**-1
  27:      1177.07 cm**-1
  28:      1177.93 cm**-1
  29:      1194.82 cm**-1
  30:      1231.69 cm**-1
  31:      1327.97 cm**-1
  32:      1454.10 cm**-1
  33:      1466.35 cm**-1
  34:      1466.46 cm**-1
  35:      1474.63 cm**-1
  36:      1476.04 cm**-1
  37:      1484.39 cm**-1
  38:      1490.67 cm**-1
  39:      1492.19 cm**-1
  40:      1497.93 cm**-1
  41:      1503.84 cm**-1
  42:      1514.32 cm**-1
  43:      1518.91 cm**-1
  44:      1529.79 cm**-1
  45:      1571.49 cm**-1
  46:      1785.47 cm**-1
  47:      3086.62 cm**-1
  48:      3086.80 cm**-1
  49:      3092.50 cm**-1
  50:      3096.47 cm**-1
  51:      3167.67 cm**-1
  52:      3167.87 cm**-1
  53:      3172.96 cm**-1
  54:      3174.85 cm**-1
  55:      3194.76 cm**-1
  56:      3196.33 cm**-1
  57:      3214.89 cm**-1
  58:      3217.73 cm**-1
  59:      3221.47 cm**-1

IR SPECTRUM
-----------

 Mode   freq       eps      Int      T**2         TX        TY        TZ
       cm**-1   L/(mol*cm) km/mol    a.u.
----------------------------------------------------------------------------
  6:     59.78   0.000007    0.04  0.000038  (-0.000000  0.000000 -0.006205)
  7:    143.79   0.000050    0.25  0.000109  ( 0.006411  0.008218  0.000000)
  8:    146.60   0.000358    1.81  0.000763  ( 0.024454  0.012850  0.000000)
  9:    157.47   0.000010    0.05  0.000019  ( 0.000001  0.000000 -0.004359)
 10:    177.50   0.000004    0.02  0.000007  ( 0.000000 -0.000000  0.002555)
 11:    220.10   0.000398    2.01  0.000564  ( 0.023129  0.005400 -0.000000)
 12:    275.80   0.000000    0.00  0.000000  ( 0.000000 -0.000000 -0.000590)
 13:    308.17   0.000116    0.59  0.000117  (-0.000000  0.000000  0.010831)
 14:    345.49   0.000862    4.36  0.000779  ( 0.025504 -0.011325 -0.000000)
 15:    408.45   0.000014    0.07  0.000011  ( 0.000000 -0.000000 -0.003290)
 16:    442.99   0.002663   13.46  0.001876  ( 0.037800 -0.021143  0.000000)
 17:    496.22   0.001413    7.14  0.000889  (-0.028637  0.008293 -0.000000)
 18:    618.78   0.000231    1.17  0.000116  ( 0.000000  0.000000 -0.010788)
 19:    881.12   0.001322    6.68  0.000468  ( 0.000000  0.000000 -0.021637)
 20:    896.47   0.003297   16.66  0.001148  (-0.000652  0.033871 -0.000000)
 21:   1018.85   0.002071   10.47  0.000634  ( 0.012182 -0.022045 -0.000000)
 22:   1085.59   0.001341    6.77  0.000385  (-0.006374  0.018567  0.000001)
 23:   1087.35   0.003528   17.83  0.001012  ( 0.000000 -0.000000  0.031819)
 24:   1119.96   0.000343    1.73  0.000096  ( 0.000000 -0.000000 -0.009776)
 25:   1133.46   0.000059    0.30  0.000016  ( 0.000000 -0.000000 -0.004043)
 26:   1135.79   0.001013    5.12  0.000278  (-0.009730  0.013556 -0.000000)
 27:   1177.07   0.002096   10.59  0.000556  (-0.008699 -0.021912  0.000000)
 28:   1177.93   0.000022    0.11  0.000006  ( 0.000001  0.000004  0.002392)
 29:   1194.82   0.011840   59.84  0.003092  (-0.003477  0.055501 -0.000000)
 30:   1231.69   0.000055    0.28  0.000014  ( 0.003370  0.001630 -0.000000)
 31:   1327.97   0.004991   25.22  0.001173  ( 0.000000  0.000000 -0.034246)
 32:   1454.10   0.003713   18.76  0.000797  (-0.006791  0.027400  0.000000)
 33:   1466.35   0.003378   17.07  0.000719  (-0.007601 -0.025712  0.000007)
 34:   1466.46   0.000798    4.03  0.000170  ( 0.000004  0.000014  0.013028)
 35:   1474.63   0.000830    4.19  0.000176  (-0.005136  0.012214  0.000000)
 36:   1476.04   0.000064    0.32  0.000014  ( 0.000000 -0.000001  0.003681)
 37:   1484.39   0.012282   62.07  0.002582  (-0.001914  0.050778  0.000000)
 38:   1490.67   0.000214    1.08  0.000045  (-0.000001 -0.000001 -0.006691)
 39:   1492.19   0.009821   49.63  0.002054  ( 0.044733  0.007275 -0.000000)
 40:   1497.93   0.000196    0.99  0.000041  ( 0.000000 -0.000000 -0.006398)
 41:   1503.84   0.001907    9.64  0.000396  ( 0.000000 -0.000000  0.019893)
 42:   1514.32   0.003368   17.02  0.000694  (-0.026321  0.001170 -0.000000)
 43:   1518.91   0.000956    4.83  0.000196  ( 0.000000  0.000000 -0.014013)
 44:   1529.79   0.006547   33.09  0.001336  (-0.007310  0.035807  0.000000)
 45:   1571.49   0.005593   28.26  0.001111  ( 0.000000  0.000000  0.033326)
 46:   1785.47   0.139756  706.27  0.024426  ( 0.000142 -0.156289 -0.000000)
 47:   3086.62   0.002633   13.31  0.000266  (-0.001334  0.016261  0.000003)
 48:   3086.80   0.000849    4.29  0.000086  (-0.000000  0.000005 -0.009266)
 49:   3092.50   0.000679    3.43  0.000068  (-0.001177  0.008191  0.000000)
 50:   3096.47   0.001636    8.27  0.000165  ( 0.000000  0.000000 -0.012840)
 51:   3167.67   0.000053    0.27  0.000005  ( 0.000002  0.000001  0.002275)
 52:   3167.87   0.001108    5.60  0.000109  ( 0.010025  0.002942 -0.000001)
 53:   3172.96   0.000039    0.20  0.000004  (-0.000000 -0.000000  0.001967)
 54:   3174.85   0.000371    1.87  0.000036  (-0.005094 -0.003238 -0.000000)
 55:   3194.76   0.000633    3.20  0.000062  (-0.000000 -0.000000 -0.007860)
 56:   3196.33   0.000587    2.97  0.000057  (-0.002559 -0.007128  0.000000)
 57:   3214.89   0.000008    0.04  0.000001  ( 0.000000 -0.000000  0.000886)
 58:   3217.73   0.000716    3.62  0.000069  ( 0.005724 -0.006054 -0.000000)
 59:   3221.47   0.000104    0.53  0.000010  ( 0.000000 -0.000000  0.003174)

--------------------------
THERMOCHEMISTRY AT 298.15K
--------------------------

Temperature         ... 298.15 K
Pressure            ... 1.00 atm
Total Mass          ... 101.17 AMU

Throughout the following assumptions are being made:
  (1) The electronic state is orbitally nondegenerate
  (2) There are no thermally accessible electronically excited states
  (3) Hindered rotations indicated by low frequency modes are not
      treated as such but are treated as vibrations and this may
      cause some error
  (4) All equations used are the standard statistical mechanics
      equations for an ideal gas
  (5) All vibrations are strictly harmonic

freq.      59.78  E(vib)   ...       0.51
freq.     143.79  E(vib)   ...       0.41
freq.     146.60  E(vib)   ...       0.41
freq.     157.47  E(vib)   ...       0.40
freq.     177.50  E(vib)   ...       0.37
freq.     220.10  E(vib)   ...       0.33
freq.     275.80  E(vib)   ...       0.28
freq.     308.17  E(vib)   ...       0.26
freq.     345.49  E(vib)   ...       0.23
freq.     408.45  E(vib)   ...       0.19
freq.     442.99  E(vib)   ...       0.17
freq.     496.22  E(vib)   ...       0.14
freq.     618.78  E(vib)   ...       0.09
freq.     881.12  E(vib)   ...       0.04
freq.     896.47  E(vib)   ...       0.03
freq.    1018.85  E(vib)   ...       0.02
freq.    1085.59  E(vib)   ...       0.02
freq.    1087.35  E(vib)   ...       0.02
freq.    1119.96  E(vib)   ...       0.01
freq.    1133.46  E(vib)   ...       0.01
freq.    1135.79  E(vib)   ...       0.01
freq.    1177.07  E(vib)   ...       0.01
freq.    1177.93  E(vib)   ...       0.01
freq.    1194.82  E(vib)   ...       0.01
freq.    1231.69  E(vib)   ...       0.01
freq.    1327.97  E(vib)   ...       0.01
freq.    1454.10  E(vib)   ...       0.00
freq.    1466.35  E(vib)   ...       0.00
freq.    1466.46  E(vib)   ...       0.00
freq.    1474.63  E(vib)   ...       0.00
freq.    1476.04  E(vib)   ...       0.00
freq.    1484.39  E(vib)   ...       0.00
freq.    1490.67  E(vib)   ...       0.00
freq.    1492.19  E(vib)   ...       0.00
freq.    1497.93  E(vib)   ...       0.00
freq.    1503.84  E(vib)   ...       0.00
freq.    1514.32  E(vib)   ...       0.00
freq.    1518.91  E(vib)   ...       0.00
freq.    1529.79  E(vib)   ...       0.00
freq.    1571.49  E(vib)   ...       0.00
freq.    1785.47  E(vib)   ...       0.00
freq.    3086.62  E(vib)   ...       0.00
freq.    3086.80  E(vib)   ...       0.00
freq.    3092.50  E(vib)   ...       0.00
freq.    3096.47  E(vib)   ...       0.00
freq.    3167.67  E(vib)   ...       0.00
freq.    3167.87  E(vib)   ...       0.00
freq.    3172.96  E(vib)   ...       0.00
freq.    3174.85  E(vib)   ...       0.00
freq.    3194.76  E(vib)   ...       0.00
freq.    3196.33  E(vib)   ...       0.00
freq.    3214.89  E(vib)   ...       0.00
freq.    3217.73  E(vib)   ...       0.00
freq.    3221.47  E(vib)   ...       0.00

------------
INNER ENERGY
------------

The inner energy is: U= E(el) + E(ZPE) + E(vib) + E(rot) + E(trans)
    E(el)   - is the total energy from the electronic structure calculation
              = E(kin-el) + E(nuc-el) + E(el-el) + E(nuc-nuc)
    E(ZPE)  - the the zero temperature vibrational energy from the frequency calculation
    E(vib)  - the the finite temperature correction to E(ZPE) due to population
              of excited vibrational states
    E(rot)  - is the rotational thermal energy
    E(trans)- is the translational thermal energy

Summary of contributions to the inner energy U:
Electronic energy                ...   -307.66085573 Eh
Zero point energy                ...      0.18700718 Eh     117.35 kcal/mol
Thermal vibrational correction   ...      0.00646766 Eh       4.06 kcal/mol
Thermal rotational correction    ...      0.00141627 Eh       0.89 kcal/mol
Thermal translational correction ...      0.00141627 Eh       0.89 kcal/mol
-----------------------------------------------------------------------
Total thermal energy                   -307.46454835 Eh

Summary of corrections to the electronic energy:
(perhaps to be used in another calculation)
Total thermal correction                  0.00930020 Eh       5.84 kcal/mol
Non-thermal (ZPE) correction              0.18700718 Eh     117.35 kcal/mol
-----------------------------------------------------------------------
Total correction                          0.19630738 Eh     123.18 kcal/mol

--------
ENTHALPY
--------

The enthalpy is H = U + kB*T
                kB is Boltzmann's constant
Total free energy                 ...   -307.46454835 Eh
Thermal Enthalpy correction       ...      0.00094421 Eh       0.59 kcal/mol
-----------------------------------------------------------------------
Total Enthalpy                    ...   -307.46360414 Eh

Note: Rotational entropy computed according to Herzberg
Infrared and Raman Spectra, Chapter V,1, Van Nostrand Reinhold, 1945
Point Group:  C2, Symmetry Number:   2
Rotational constants in cm-1:     0.155840     0.056191     0.043299

Vibrational entropy computed according to the QRRHO of S. Grimme
Chem.Eur.J. 2012 18 9955

-------
ENTROPY
-------

The entropy contributions are T*S = T*(S(el)+S(vib)+S(rot)+S(trans))
     S(el)   - electronic entropy
     S(vib)  - vibrational entropy
     S(rot)  - rotational entropy
     S(trans)- translational entropy
The entropies will be listed as multiplied by the temperature to get
units of energy

Electronic entropy                ...      0.00000000 Eh      0.00 kcal/mol
Vibrational entropy               ...      0.01128344 Eh      7.08 kcal/mol
Rotational entropy                ...      0.01257527 Eh      7.89 kcal/mol
Translational entropy             ...      0.01888776 Eh     11.85 kcal/mol
-----------------------------------------------------------------------
Final entropy term                ...      0.04274646 Eh     26.82 kcal/mol

In case the symmetry of your molecule has not been determined correctly
or in case you have a reason to use a different symmetry number we print
out the resulting rotational entropy values for sn=1,12 :
 --------------------------------------------------------
|  sn= 1 | S(rot)=       0.01322972 Eh      8.30 kcal/mol|
|  sn= 2 | S(rot)=       0.01257527 Eh      7.89 kcal/mol|
|  sn= 3 | S(rot)=       0.01219243 Eh      7.65 kcal/mol|
|  sn= 4 | S(rot)=       0.01192081 Eh      7.48 kcal/mol|
|  sn= 5 | S(rot)=       0.01171012 Eh      7.35 kcal/mol|
|  sn= 6 | S(rot)=       0.01153798 Eh      7.24 kcal/mol|
|  sn= 7 | S(rot)=       0.01139243 Eh      7.15 kcal/mol|
|  sn= 8 | S(rot)=       0.01126635 Eh      7.07 kcal/mol|
|  sn= 9 | S(rot)=       0.01115514 Eh      7.00 kcal/mol|
|  sn=10 | S(rot)=       0.01105566 Eh      6.94 kcal/mol|
|  sn=11 | S(rot)=       0.01096567 Eh      6.88 kcal/mol|
|  sn=12 | S(rot)=       0.01088352 Eh      6.83 kcal/mol|
 --------------------------------------------------------

                             ****ORCA TERMINATED NORMALLY****
TOTAL RUN TIME: 0 days 0 hours 16 minutes 58 seconds 905 msec
