                         Program Version 5.0.4 -  RELEASE  -
|  1> # ORCA 5.0.4 - /users/bwb16179/postgrad/2024_06/pKa_Reviewer_Comments/Aq_Z=1/10_prot.inp # write input file
|  2> # Basic Mode
|  3> #
|  4> ! Opt Freq wB97X Def2-TZVP D4 SlowConv TightSCF Defgrid2 Def2/J RIJCOSX CPCM(Water)
|  5>
|  6> %PAL NPROCS 4 END
|  7>
|  8> %maxcore 4500
|  9>
| 10> %geom
| 11> Maxiter 150
| 12> END
| 13>
| 14> * xyzfile 1 1 10_prot.xyz
| 15>
| 16>                          ****END OF INPUT****
 Total Charge           Charge          ....    1
 Multiplicity           Mult            ....    1
 Number of Electrons    NEL             ....   62
Dispersion correction           -0.002463552
FINAL SINGLE POINT ENERGY      -345.875258405779
Dispersion correction            ... Starting D4
Dispersion correction           -0.002467435
FINAL SINGLE POINT ENERGY      -345.876084101823
Dispersion correction            ... Starting D4
Dispersion correction           -0.002467516
FINAL SINGLE POINT ENERGY      -345.876089055451
Dispersion correction            ... Starting D4
                    ***********************HURRAY********************

CARTESIAN COORDINATES (ANGSTROEM)
---------------------------------
  C     -0.067455    1.111545    1.245767
  C     -0.065602   -0.955165    0.000000
  C     -0.067453    1.111544   -1.245767
  C      0.563302    1.703766    0.000000
  H     -1.097437    1.454364    1.375124
  H     -0.067039   -2.039152    0.000000
  H      0.496850    1.387006   -2.136574
  H      1.635665    1.497169    0.000001
  N     -0.066926   -0.348159    1.159470
  N     -0.066926   -0.348159   -1.159469
  H     -1.097435    1.454365   -1.375126
  H      0.429788    2.784506   -0.000000
  H      0.496846    1.387007    2.136575
  C     -0.110399   -1.098916    2.404316
  H     -0.141940   -2.165234    2.190256
  H      0.774922   -0.872846    2.999288
  H     -1.001254   -0.818126    2.967851
  C     -0.110401   -1.098916   -2.404316
  H      0.774922   -0.872850   -2.999288
  H     -0.141947   -2.165234   -2.190256
  H     -1.001254   -0.818122   -2.967851

 Multiplicity           Mult            ....    1
 Number of Electrons    NEL             ....   62
 Basis Dimension        Dim             ....  326

ORBITAL ENERGIES
----------------

  NO   OCC          E(Eh)            E(eV)
   0   2.0000     -14.466745      -393.6602
   1   2.0000     -14.466729      -393.6597
   2   2.0000     -10.375919      -282.3431
   3   2.0000     -10.305998      -280.4405
   4   2.0000     -10.305991      -280.4403
   5   2.0000     -10.297047      -280.1969
   6   2.0000     -10.297046      -280.1969
   7   2.0000     -10.270955      -279.4869
   8   2.0000      -1.171095       -31.8671
   9   2.0000      -1.093637       -29.7594
  10   2.0000      -0.952525       -25.9195
  11   2.0000      -0.893331       -24.3088
  12   2.0000      -0.861601       -23.4454
  13   2.0000      -0.810146       -22.0452
  14   2.0000      -0.795756       -21.6536
  15   2.0000      -0.685165       -18.6443
  16   2.0000      -0.660047       -17.9608
  17   2.0000      -0.649976       -17.6868
  18   2.0000      -0.625801       -17.0289
  19   2.0000      -0.593411       -16.1475
  20   2.0000      -0.574150       -15.6234
  21   2.0000      -0.568123       -15.4594
  22   2.0000      -0.561964       -15.2918
  23   2.0000      -0.531004       -14.4494
  24   2.0000      -0.526406       -14.3242
  25   2.0000      -0.515929       -14.0392
  26   2.0000      -0.493565       -13.4306
  27   2.0000      -0.474582       -12.9140
  28   2.0000      -0.465531       -12.6677
  29   2.0000      -0.451664       -12.2904
  30   2.0000      -0.355810        -9.6821
  31   0.0000       0.061678         1.6783
  32   0.0000       0.111252         3.0273
  33   0.0000       0.137787         3.7494
  34   0.0000       0.146930         3.9982
  35   0.0000       0.158170         4.3040

MULLIKEN ATOMIC CHARGES
-----------------------
   0 C :   -0.173121
   1 C :    0.137946
   2 C :   -0.173152
   3 C :   -0.233280
   4 H :    0.165430
   5 H :    0.225558
   6 H :    0.169164
   7 H :    0.148161
   8 N :   -0.081893
   9 N :   -0.081907
  10 H :    0.165434
  11 H :    0.158409
  12 H :    0.169163
  13 C :   -0.287168
  14 H :    0.159333
  15 H :    0.165862
  16 H :    0.164003
  17 C :   -0.287121
  18 H :    0.165854
  19 H :    0.159332
  20 H :    0.163993
Sum of atomic charges:    1.0000000

LOEWDIN ATOMIC CHARGES
----------------------
   0 C :   -0.214957
   1 C :   -0.151965
   2 C :   -0.214958
   3 C :   -0.238525
   4 H :    0.150157
   5 H :    0.177234
   6 H :    0.153400
   7 H :    0.152550
   8 N :    0.209524
   9 N :    0.209524
  10 H :    0.150157
  11 H :    0.157765
  12 H :    0.153400
  13 C :   -0.242557
  14 H :    0.135036
  15 H :    0.130004
  16 H :    0.130864
  17 C :   -0.242556
  18 H :    0.130004
  19 H :    0.135036
  20 H :    0.130864

  Mayer bond orders larger than 0.100000
B(  0-C ,  3-C ) :   0.9735 B(  0-C ,  4-H ) :   0.9592 B(  0-C ,  8-N ) :   0.8859
B(  0-C , 12-H ) :   0.9606 B(  1-C ,  5-H ) :   0.9047 B(  1-C ,  8-N ) :   1.4857
B(  1-C ,  9-N ) :   1.4857 B(  2-C ,  3-C ) :   0.9735 B(  2-C ,  6-H ) :   0.9606
B(  2-C ,  9-N ) :   0.8859 B(  2-C , 10-H ) :   0.9592 B(  3-C ,  7-H ) :   0.9797
B(  3-C , 11-H ) :   0.9698 B(  8-N , 13-C ) :   0.8924 B(  9-N , 17-C ) :   0.8924
B( 13-C , 14-H ) :   0.9606 B( 13-C , 15-H ) :   0.9647 B( 13-C , 16-H ) :   0.9609
B( 17-C , 18-H ) :   0.9647 B( 17-C , 19-H ) :   0.9606 B( 17-C , 20-H ) :   0.9609

Dispersion correction           -0.002467491
FINAL SINGLE POINT ENERGY      -345.876091085741

DIPOLE MOMENT
-------------
                                X             Y             Z
Electronic contribution:     -0.17338      -0.73592      -0.00000
Nuclear contribution   :      0.06787       0.22217      -0.00000
                        -----------------------------------------
Total Dipole Moment    :     -0.10551      -0.51375      -0.00000
                        -----------------------------------------
Magnitude (a.u.)       :      0.52447
Magnitude (Debye)      :      1.33310

Dispersion correction in the Hessian             ... Starting D4

VIBRATIONAL FREQUENCIES
-----------------------

Scaling factor for frequencies =  1.000000000  (already applied!)

   0:         0.00 cm**-1
   1:         0.00 cm**-1
   2:         0.00 cm**-1
   3:         0.00 cm**-1
   4:         0.00 cm**-1
   5:         0.00 cm**-1
   6:       119.14 cm**-1
   7:       155.11 cm**-1
   8:       203.42 cm**-1
   9:       228.25 cm**-1
  10:       273.50 cm**-1
  11:       296.85 cm**-1
  12:       318.67 cm**-1
  13:       424.39 cm**-1
  14:       460.77 cm**-1
  15:       475.98 cm**-1
  16:       527.03 cm**-1
  17:       620.60 cm**-1
  18:       805.85 cm**-1
  19:       883.86 cm**-1
  20:       918.27 cm**-1
  21:       939.29 cm**-1
  22:      1021.28 cm**-1
  23:      1044.65 cm**-1
  24:      1067.09 cm**-1
  25:      1136.75 cm**-1
  26:      1138.25 cm**-1
  27:      1144.60 cm**-1
  28:      1155.62 cm**-1
  29:      1174.73 cm**-1
  30:      1201.39 cm**-1
  31:      1246.66 cm**-1
  32:      1279.40 cm**-1
  33:      1285.05 cm**-1
  34:      1342.28 cm**-1
  35:      1370.98 cm**-1
  36:      1404.64 cm**-1
  37:      1430.45 cm**-1
  38:      1434.75 cm**-1
  39:      1467.67 cm**-1
  40:      1473.91 cm**-1
  41:      1475.76 cm**-1
  42:      1476.78 cm**-1
  43:      1479.56 cm**-1
  44:      1490.20 cm**-1
  45:      1495.52 cm**-1
  46:      1504.01 cm**-1
  47:      1515.94 cm**-1
  48:      1582.96 cm**-1
  49:      1771.96 cm**-1
  50:      3080.14 cm**-1
  51:      3080.96 cm**-1
  52:      3084.96 cm**-1
  53:      3087.06 cm**-1
  54:      3099.02 cm**-1
  55:      3150.40 cm**-1
  56:      3152.06 cm**-1
  57:      3157.45 cm**-1
  58:      3157.46 cm**-1
  59:      3167.04 cm**-1
  60:      3194.43 cm**-1
  61:      3194.50 cm**-1
  62:      3234.24 cm**-1

IR SPECTRUM
-----------

 Mode   freq       eps      Int      T**2         TX        TY        TZ
       cm**-1   L/(mol*cm) km/mol    a.u.
----------------------------------------------------------------------------
  6:    119.14   0.000016    0.08  0.000041  (-0.000001 -0.000000 -0.006394)
  7:    155.11   0.001084    5.48  0.002181  (-0.046618 -0.002781 -0.000000)
  8:    203.42   0.000047    0.24  0.000072  ( 0.000001  0.000000  0.008489)
  9:    228.25   0.000365    1.84  0.000498  (-0.022322 -0.000460  0.000000)
 10:    273.50   0.000095    0.48  0.000108  (-0.010396 -0.000388  0.000000)
 11:    296.85   0.000004    0.02  0.000004  (-0.000000 -0.000000 -0.002009)
 12:    318.67   0.000018    0.09  0.000018  (-0.000625 -0.004144 -0.000000)
 13:    424.39   0.000005    0.02  0.000003  ( 0.000000  0.000000 -0.001822)
 14:    460.77   0.005752   29.07  0.003895  (-0.062399  0.001333  0.000000)
 15:    475.98   0.001539    7.78  0.001009  (-0.000000 -0.000000 -0.031769)
 16:    527.03   0.001695    8.57  0.001004  (-0.031012 -0.006492 -0.000000)
 17:    620.60   0.000035    0.18  0.000018  (-0.001547  0.003922  0.000000)
 18:    805.85   0.000272    1.37  0.000105  (-0.008323 -0.006003  0.000000)
 19:    883.86   0.000507    2.56  0.000179  ( 0.000000  0.000000 -0.013377)
 20:    918.27   0.000004    0.02  0.000001  ( 0.000000 -0.000000 -0.001134)
 21:    939.29   0.000346    1.75  0.000115  (-0.010674  0.001037 -0.000000)
 22:   1021.28   0.000956    4.83  0.000292  ( 0.016198 -0.005441  0.000000)
 23:   1044.65   0.006763   34.18  0.002020  ( 0.009583 -0.043914 -0.000000)
 24:   1067.09   0.000334    1.69  0.000098  ( 0.000000  0.000000 -0.009883)
 25:   1136.75   0.001387    7.01  0.000381  (-0.019360 -0.002453  0.000000)
 26:   1138.25   0.002105   10.64  0.000577  ( 0.008633  0.022415  0.000000)
 27:   1144.60   0.003637   18.38  0.000992  ( 0.000000  0.000000 -0.031490)
 28:   1155.62   0.000009    0.05  0.000003  (-0.000000  0.000000  0.001585)
 29:   1174.73   0.000210    1.06  0.000056  (-0.007301 -0.001609  0.000000)
 30:   1201.39   0.021991  111.13  0.005712  (-0.000000 -0.000000 -0.075579)
 31:   1246.66   0.009038   45.67  0.002262  (-0.000000  0.000000  0.047564)
 32:   1279.40   0.000019    0.09  0.000005  (-0.000000 -0.000001 -0.002130)
 33:   1285.05   0.008492   42.92  0.002062  ( 0.018454  0.041494 -0.000000)
 34:   1342.28   0.001783    9.01  0.000415  ( 0.009332 -0.018095  0.000000)
 35:   1370.98   0.018151   91.73  0.004131  (-0.000000 -0.000000  0.064277)
 36:   1404.64   0.002739   13.84  0.000609  ( 0.000000  0.000000  0.024670)
 37:   1430.45   0.005600   28.30  0.001222  (-0.003402  0.034788  0.000000)
 38:   1434.75   0.004969   25.11  0.001081  (-0.000000 -0.000001  0.032876)
 39:   1467.67   0.016676   84.27  0.003546  (-0.000001 -0.000000  0.059546)
 40:   1473.91   0.008024   40.55  0.001699  ( 0.040745  0.006219  0.000001)
 41:   1475.76   0.000711    3.59  0.000150  ( 0.000004 -0.000001 -0.012260)
 42:   1476.78   0.002205   11.14  0.000466  (-0.019581  0.009079 -0.000002)
 43:   1479.56   0.001151    5.82  0.000243  (-0.015562 -0.000811 -0.000001)
 44:   1490.20   0.003822   19.32  0.000800  ( 0.005646  0.027723  0.000001)
 45:   1495.52   0.000014    0.07  0.000003  ( 0.000000  0.000001  0.001704)
 46:   1504.01   0.001652    8.35  0.000343  ( 0.004261  0.018014 -0.000000)
 47:   1515.94   0.004968   25.11  0.001023  ( 0.000000  0.000000  0.031979)
 48:   1582.96   0.009382   47.41  0.001849  (-0.005218  0.042688 -0.000000)
 49:   1771.96   0.185557  937.73  0.032679  (-0.000000 -0.000000  0.180773)
 50:   3080.14   0.012324   62.28  0.001249  ( 0.000000  0.000001 -0.035336)
 51:   3080.96   0.001509    7.62  0.000153  (-0.000327  0.012357  0.000003)
 52:   3084.96   0.005782   29.22  0.000585  ( 0.000003 -0.000002 -0.024185)
 53:   3087.06   0.004250   21.48  0.000430  ( 0.013491 -0.015735  0.000004)
 54:   3099.02   0.004039   20.41  0.000407  (-0.020147 -0.000900 -0.000000)
 55:   3150.40   0.001863    9.41  0.000185  ( 0.000005  0.000001 -0.013584)
 56:   3152.06   0.004099   20.71  0.000406  (-0.019272 -0.005864 -0.000004)
 57:   3157.45   0.000010    0.05  0.000001  (-0.000242  0.000038  0.000983)
 58:   3157.46   0.004158   21.01  0.000411  ( 0.020027 -0.003140  0.000012)
 59:   3167.04   0.002668   13.48  0.000263  ( 0.011545 -0.011384  0.000000)
 60:   3194.43   0.001796    9.08  0.000175  (-0.001696 -0.013138  0.000013)
 61:   3194.50   0.001047    5.29  0.000102  (-0.000002 -0.000018 -0.010112)
 62:   3234.24   0.000152    0.77  0.000015  ( 0.000557 -0.003784 -0.000000)

--------------------------
THERMOCHEMISTRY AT 298.15K
--------------------------

Temperature         ... 298.15 K
Pressure            ... 1.00 atm
Total Mass          ... 113.18 AMU

Throughout the following assumptions are being made:
  (1) The electronic state is orbitally nondegenerate
  (2) There are no thermally accessible electronically excited states
  (3) Hindered rotations indicated by low frequency modes are not
      treated as such but are treated as vibrations and this may
      cause some error
  (4) All equations used are the standard statistical mechanics
      equations for an ideal gas
  (5) All vibrations are strictly harmonic

freq.     119.14  E(vib)   ...       0.44
freq.     155.11  E(vib)   ...       0.40
freq.     203.42  E(vib)   ...       0.35
freq.     228.25  E(vib)   ...       0.32
freq.     273.50  E(vib)   ...       0.29
freq.     296.85  E(vib)   ...       0.27
freq.     318.67  E(vib)   ...       0.25
freq.     424.39  E(vib)   ...       0.18
freq.     460.77  E(vib)   ...       0.16
freq.     475.98  E(vib)   ...       0.15
freq.     527.03  E(vib)   ...       0.13
freq.     620.60  E(vib)   ...       0.09
freq.     805.85  E(vib)   ...       0.05
freq.     883.86  E(vib)   ...       0.04
freq.     918.27  E(vib)   ...       0.03
freq.     939.29  E(vib)   ...       0.03
freq.    1021.28  E(vib)   ...       0.02
freq.    1044.65  E(vib)   ...       0.02
freq.    1067.09  E(vib)   ...       0.02
freq.    1136.75  E(vib)   ...       0.01
freq.    1138.25  E(vib)   ...       0.01
freq.    1144.60  E(vib)   ...       0.01
freq.    1155.62  E(vib)   ...       0.01
freq.    1174.73  E(vib)   ...       0.01
freq.    1201.39  E(vib)   ...       0.01
freq.    1246.66  E(vib)   ...       0.01
freq.    1279.40  E(vib)   ...       0.01
freq.    1285.05  E(vib)   ...       0.01
freq.    1342.28  E(vib)   ...       0.01
freq.    1370.98  E(vib)   ...       0.01
freq.    1404.64  E(vib)   ...       0.00
freq.    1430.45  E(vib)   ...       0.00
freq.    1434.75  E(vib)   ...       0.00
freq.    1467.67  E(vib)   ...       0.00
freq.    1473.91  E(vib)   ...       0.00
freq.    1475.76  E(vib)   ...       0.00
freq.    1476.78  E(vib)   ...       0.00
freq.    1479.56  E(vib)   ...       0.00
freq.    1490.20  E(vib)   ...       0.00
freq.    1495.52  E(vib)   ...       0.00
freq.    1504.01  E(vib)   ...       0.00
freq.    1515.94  E(vib)   ...       0.00
freq.    1582.96  E(vib)   ...       0.00
freq.    1771.96  E(vib)   ...       0.00
freq.    3080.14  E(vib)   ...       0.00
freq.    3080.96  E(vib)   ...       0.00
freq.    3084.96  E(vib)   ...       0.00
freq.    3087.06  E(vib)   ...       0.00
freq.    3099.02  E(vib)   ...       0.00
freq.    3150.40  E(vib)   ...       0.00
freq.    3152.06  E(vib)   ...       0.00
freq.    3157.45  E(vib)   ...       0.00
freq.    3157.46  E(vib)   ...       0.00
freq.    3167.04  E(vib)   ...       0.00
freq.    3194.43  E(vib)   ...       0.00
freq.    3194.50  E(vib)   ...       0.00
freq.    3234.24  E(vib)   ...       0.00

------------
INNER ENERGY
------------

The inner energy is: U= E(el) + E(ZPE) + E(vib) + E(rot) + E(trans)
    E(el)   - is the total energy from the electronic structure calculation
              = E(kin-el) + E(nuc-el) + E(el-el) + E(nuc-nuc)
    E(ZPE)  - the the zero temperature vibrational energy from the frequency calculation
    E(vib)  - the the finite temperature correction to E(ZPE) due to population
              of excited vibrational states
    E(rot)  - is the rotational thermal energy
    E(trans)- is the translational thermal energy

Summary of contributions to the inner energy U:
Electronic energy                ...   -345.87609109 Eh
Zero point energy                ...      0.19615824 Eh     123.09 kcal/mol
Thermal vibrational correction   ...      0.00539124 Eh       3.38 kcal/mol
Thermal rotational correction    ...      0.00141627 Eh       0.89 kcal/mol
Thermal translational correction ...      0.00141627 Eh       0.89 kcal/mol
-----------------------------------------------------------------------
Total thermal energy                   -345.67170906 Eh

Summary of corrections to the electronic energy:
(perhaps to be used in another calculation)
Total thermal correction                  0.00822379 Eh       5.16 kcal/mol
Non-thermal (ZPE) correction              0.19615824 Eh     123.09 kcal/mol
-----------------------------------------------------------------------
Total correction                          0.20438203 Eh     128.25 kcal/mol

--------
ENTHALPY
--------

The enthalpy is H = U + kB*T
                kB is Boltzmann's constant
Total free energy                 ...   -345.67170906 Eh
Thermal Enthalpy correction       ...      0.00094421 Eh       0.59 kcal/mol
-----------------------------------------------------------------------
Total Enthalpy                    ...   -345.67076485 Eh

Note: Rotational entropy computed according to Herzberg
Infrared and Raman Spectra, Chapter V,1, Van Nostrand Reinhold, 1945
Point Group:  Cs, Symmetry Number:   1
Rotational constants in cm-1:     0.107972     0.059425     0.040404

Vibrational entropy computed according to the QRRHO of S. Grimme
Chem.Eur.J. 2012 18 9955

-------
ENTROPY
-------

The entropy contributions are T*S = T*(S(el)+S(vib)+S(rot)+S(trans))
     S(el)   - electronic entropy
     S(vib)  - vibrational entropy
     S(rot)  - rotational entropy
     S(trans)- translational entropy
The entropies will be listed as multiplied by the temperature to get
units of energy

Electronic entropy                ...      0.00000000 Eh      0.00 kcal/mol
Vibrational entropy               ...      0.00889017 Eh      5.58 kcal/mol
Rotational entropy                ...      0.01340921 Eh      8.41 kcal/mol
Translational entropy             ...      0.01904664 Eh     11.95 kcal/mol
-----------------------------------------------------------------------
Final entropy term                ...      0.04134602 Eh     25.94 kcal/mol

In case the symmetry of your molecule has not been determined correctly
or in case you have a reason to use a different symmetry number we print
out the resulting rotational entropy values for sn=1,12 :
 --------------------------------------------------------
|  sn= 1 | S(rot)=       0.01340921 Eh      8.41 kcal/mol|
|  sn= 2 | S(rot)=       0.01275475 Eh      8.00 kcal/mol|
|  sn= 3 | S(rot)=       0.01237192 Eh      7.76 kcal/mol|
|  sn= 4 | S(rot)=       0.01210030 Eh      7.59 kcal/mol|
|  sn= 5 | S(rot)=       0.01188961 Eh      7.46 kcal/mol|
|  sn= 6 | S(rot)=       0.01171746 Eh      7.35 kcal/mol|
|  sn= 7 | S(rot)=       0.01157192 Eh      7.26 kcal/mol|
|  sn= 8 | S(rot)=       0.01144584 Eh      7.18 kcal/mol|
|  sn= 9 | S(rot)=       0.01133463 Eh      7.11 kcal/mol|
|  sn=10 | S(rot)=       0.01123515 Eh      7.05 kcal/mol|
|  sn=11 | S(rot)=       0.01114516 Eh      6.99 kcal/mol|

                             ****ORCA TERMINATED NORMALLY****
TOTAL RUN TIME: 0 days 0 hours 23 minutes 31 seconds 626 msec
