                         Program Version 5.0.4 -  RELEASE  -
|  1> # ORCA 5.0.4 - /users/bwb16179/postgrad/2024_06/pKa_Reviewer_Comments/Aq_Z=1/11_prot.inp # write input file
|  2> # Basic Mode
|  3> #
|  4> ! Opt Freq wB97X Def2-TZVP D4 SlowConv TightSCF Defgrid2 Def2/J RIJCOSX CPCM(Water)
|  5>
|  6> %PAL NPROCS 4 END
|  7>
|  8> %maxcore 4500
|  9>
| 10> %geom
| 11> Maxiter 150
| 12> END
| 13>
| 14> * xyzfile 1 1 11_prot.xyz
| 15>
| 16>                          ****END OF INPUT****
 Total Charge           Charge          ....    1
 Multiplicity           Mult            ....    1
 Number of Electrons    NEL             ....   56
Dispersion correction           -0.002068105
FINAL SINGLE POINT ENERGY      -307.742366374679
Dispersion correction            ... Starting D4
Dispersion correction           -0.002071969
FINAL SINGLE POINT ENERGY      -307.743194756114
Dispersion correction            ... Starting D4
Dispersion correction           -0.002071534
FINAL SINGLE POINT ENERGY      -307.743203887267
Dispersion correction            ... Starting D4
Dispersion correction           -0.002071875
FINAL SINGLE POINT ENERGY      -307.743210620014
Dispersion correction            ... Starting D4
Dispersion correction           -0.002071836
FINAL SINGLE POINT ENERGY      -307.743212583850
Dispersion correction            ... Starting D4
                    ***********************HURRAY********************

CARTESIAN COORDINATES (ANGSTROEM)
---------------------------------
  C     -0.000000   -0.000000    0.666005
  N     -0.006362    1.187369    0.109168
  N      0.006362   -1.187369    0.109167
  C      0.241423    1.484240   -1.298965
  C     -0.241423   -1.484240   -1.298966
  H      0.747838    2.447173   -1.341231
  H     -0.747839   -2.447172   -1.341231
  H      0.892341    0.736173   -1.740483
  H     -0.892340   -0.736172   -1.740483
  H     -0.691672    1.552436   -1.859160
  H      0.691672   -1.552438   -1.859160
  C     -0.251514    2.358869    0.947236
  C      0.251514   -2.358869    0.947236
  H     -0.396890    2.056387    1.981539
  H      0.396891   -2.056387    1.981539
  H      0.598409    3.038282    0.877481
  H     -0.598409   -3.038281    0.877483
  H     -1.149148    2.869179    0.595419
  H      1.149148   -2.869180    0.595417
  H     -0.000001   -0.000000    1.750716

 Multiplicity           Mult            ....    1
 Number of Electrons    NEL             ....   56
 Basis Dimension        Dim             ....  295

ORBITAL ENERGIES
----------------

  NO   OCC          E(Eh)            E(eV)
   0   2.0000     -14.471362      -393.7858
   1   2.0000     -14.471346      -393.7853
   2   2.0000     -10.379166      -282.4315
   3   2.0000     -10.298038      -280.2239
   4   2.0000     -10.298037      -280.2238
   5   2.0000     -10.297041      -280.1967
   6   2.0000     -10.297040      -280.1967
   7   2.0000      -1.162133       -31.6232
   8   2.0000      -1.097302       -29.8591
   9   2.0000      -0.904156       -24.6033
  10   2.0000      -0.880598       -23.9623
  11   2.0000      -0.864077       -23.5127
  12   2.0000      -0.814063       -22.1518
  13   2.0000      -0.715216       -19.4620
  14   2.0000      -0.657938       -17.9034
  15   2.0000      -0.652625       -17.7588
  16   2.0000      -0.628611       -17.1054
  17   2.0000      -0.592014       -16.1095
  18   2.0000      -0.577468       -15.7137
  19   2.0000      -0.552908       -15.0454
  20   2.0000      -0.531213       -14.4551
  21   2.0000      -0.530924       -14.4472
  22   2.0000      -0.520254       -14.1568
  23   2.0000      -0.520069       -14.1518
  24   2.0000      -0.510551       -13.8928
  25   2.0000      -0.487792       -13.2735
  26   2.0000      -0.470965       -12.8156
  27   2.0000      -0.357236        -9.7209
  28   0.0000       0.058214         1.5841
  29   0.0000       0.110790         3.0147
  30   0.0000       0.140666         3.8277
  31   0.0000       0.148788         4.0487
  32   0.0000       0.162539         4.4229

MULLIKEN ATOMIC CHARGES
-----------------------
   0 C :    0.164280
   1 N :   -0.079645
   2 N :   -0.079646
   3 C :   -0.353030
   4 C :   -0.353029
   5 H :    0.171247
   6 H :    0.171249
   7 H :    0.181676
   8 H :    0.181676
   9 H :    0.189275
  10 H :    0.189274
  11 C :   -0.286303
  12 C :   -0.286304
  13 H :    0.157188
  14 H :    0.157190
  15 H :    0.166629
  16 H :    0.166627
  17 H :    0.167376
  18 H :    0.167376
  19 H :    0.206895
Sum of atomic charges:    1.0000000

LOEWDIN ATOMIC CHARGES
----------------------
   0 C :   -0.165085
   1 N :    0.188418
   2 N :    0.188417
   3 C :   -0.248753
   4 C :   -0.248753
   5 H :    0.136308
   6 H :    0.136308
   7 H :    0.134520
   8 H :    0.134520
   9 H :    0.131320
  10 H :    0.131320
  11 C :   -0.242013
  12 C :   -0.242013
  13 H :    0.133648
  14 H :    0.133649
  15 H :    0.129561
  16 H :    0.129561
  17 H :    0.131368
  18 H :    0.131368
  19 H :    0.176331

  Mayer bond orders larger than 0.100000
B(  0-C ,  1-N ) :   1.4840 B(  0-C ,  2-N ) :   1.4840 B(  0-C , 19-H ) :   0.9160
B(  1-N ,  3-C ) :   0.8753 B(  1-N , 11-C ) :   0.8908 B(  2-N ,  4-C ) :   0.8754
B(  2-N , 12-C ) :   0.8908 B(  3-C ,  5-H ) :   0.9603 B(  3-C ,  7-H ) :   0.9561
B(  3-C ,  9-H ) :   0.9603 B(  4-C ,  6-H ) :   0.9603 B(  4-C ,  8-H ) :   0.9561
B(  4-C , 10-H ) :   0.9603 B( 11-C , 13-H ) :   0.9627 B( 11-C , 15-H ) :   0.9661
B( 11-C , 17-H ) :   0.9602 B( 12-C , 14-H ) :   0.9627 B( 12-C , 16-H ) :   0.9661
B( 12-C , 18-H ) :   0.9602

Dispersion correction           -0.002071894
FINAL SINGLE POINT ENERGY      -307.743215078906

DIPOLE MOMENT
-------------
                                X             Y             Z
Electronic contribution:      0.00000       0.00000       1.50559
Nuclear contribution   :     -0.00000       0.00000      -1.31147
                        -----------------------------------------
Total Dipole Moment    :     -0.00000       0.00000       0.19411
                        -----------------------------------------
Magnitude (a.u.)       :      0.19411
Magnitude (Debye)      :      0.49340

Dispersion correction in the Hessian             ... Starting D4

VIBRATIONAL FREQUENCIES
-----------------------

Scaling factor for frequencies =  1.000000000  (already applied!)

   0:         0.00 cm**-1
   1:         0.00 cm**-1
   2:         0.00 cm**-1
   3:         0.00 cm**-1
   4:         0.00 cm**-1
   5:         0.00 cm**-1
   6:        70.12 cm**-1
   7:       118.37 cm**-1
   8:       134.55 cm**-1
   9:       188.73 cm**-1
  10:       195.14 cm**-1
  11:       230.62 cm**-1
  12:       282.73 cm**-1
  13:       306.25 cm**-1
  14:       350.31 cm**-1
  15:       416.99 cm**-1
  16:       439.48 cm**-1
  17:       500.39 cm**-1
  18:       623.21 cm**-1
  19:       884.14 cm**-1
  20:       903.87 cm**-1
  21:      1020.21 cm**-1
  22:      1091.64 cm**-1
  23:      1093.44 cm**-1
  24:      1123.93 cm**-1
  25:      1135.85 cm**-1
  26:      1137.44 cm**-1
  27:      1173.30 cm**-1
  28:      1178.67 cm**-1
  29:      1193.70 cm**-1
  30:      1238.88 cm**-1
  31:      1334.61 cm**-1
  32:      1451.12 cm**-1
  33:      1454.95 cm**-1
  34:      1456.76 cm**-1
  35:      1467.02 cm**-1
  36:      1467.15 cm**-1
  37:      1472.97 cm**-1
  38:      1477.16 cm**-1
  39:      1482.89 cm**-1
  40:      1486.94 cm**-1
  41:      1492.30 cm**-1
  42:      1506.17 cm**-1
  43:      1512.15 cm**-1
  44:      1525.51 cm**-1
  45:      1569.72 cm**-1
  46:      1769.11 cm**-1
  47:      3080.13 cm**-1
  48:      3080.81 cm**-1
  49:      3091.34 cm**-1
  50:      3095.53 cm**-1
  51:      3158.71 cm**-1
  52:      3158.77 cm**-1
  53:      3171.05 cm**-1
  54:      3173.26 cm**-1
  55:      3193.48 cm**-1
  56:      3194.60 cm**-1
  57:      3216.26 cm**-1
  58:      3218.29 cm**-1
  59:      3219.40 cm**-1

IR SPECTRUM
-----------

 Mode   freq       eps      Int      T**2         TX        TY        TZ
       cm**-1   L/(mol*cm) km/mol    a.u.
----------------------------------------------------------------------------
  6:     70.12   0.000012    0.06  0.000052  (-0.000000 -0.000000 -0.007205)
  7:    118.37   0.000499    2.52  0.001315  ( 0.030922  0.018939  0.000000)
  8:    134.55   0.000017    0.09  0.000040  ( 0.000001  0.000001 -0.006353)
  9:    188.73   0.000002    0.01  0.000003  (-0.000001 -0.000001  0.001678)
 10:    195.14   0.000417    2.11  0.000666  ( 0.021590  0.014150  0.000000)
 11:    230.62   0.000412    2.08  0.000557  ( 0.023563  0.001327 -0.000000)
 12:    282.73   0.000024    0.12  0.000026  ( 0.000000  0.000000  0.005095)
 13:    306.25   0.000250    1.26  0.000255  (-0.000000  0.000000  0.015968)
 14:    350.31   0.001992   10.07  0.001774  ( 0.038774 -0.016464  0.000000)
 15:    416.99   0.000022    0.11  0.000016  (-0.000000  0.000000  0.004031)
 16:    439.48   0.006292   31.80  0.004468  (-0.057702  0.033742 -0.000000)
 17:    500.39   0.001950    9.85  0.001216  (-0.034481  0.005204 -0.000000)
 18:    623.21   0.000184    0.93  0.000092  (-0.000000 -0.000000 -0.009604)
 19:    884.14   0.001566    7.91  0.000553  ( 0.000000  0.000000  0.023511)
 20:    903.87   0.003592   18.15  0.001240  ( 0.000708 -0.035209  0.000000)
 21:   1020.21   0.004878   24.65  0.001492  (-0.017217  0.034578  0.000000)
 22:   1091.64   0.001332    6.73  0.000381  (-0.006522  0.018394  0.000001)
 23:   1093.44   0.004367   22.07  0.001246  ( 0.000000 -0.000001  0.035304)
 24:   1123.93   0.000800    4.04  0.000222  ( 0.000000 -0.000000 -0.014901)
 25:   1135.85   0.003297   16.66  0.000906  ( 0.012577 -0.027341 -0.000000)
 26:   1137.44   0.000369    1.86  0.000101  (-0.000001  0.000001 -0.010062)
 27:   1173.30   0.009905   50.05  0.002634  (-0.005457 -0.051035  0.000000)
 28:   1178.67   0.000158    0.80  0.000042  ( 0.000000  0.000001  0.006463)
 29:   1193.70   0.021319  107.74  0.005573  (-0.003524  0.074571 -0.000000)
 30:   1238.88   0.000205    1.04  0.000052  (-0.005990 -0.003982  0.000000)
 31:   1334.61   0.007449   37.64  0.001742  ( 0.000000  0.000000 -0.041734)
 32:   1451.12   0.015297   77.31  0.003290  (-0.000271 -0.057355 -0.000000)
 33:   1454.95   0.013387   67.65  0.002871  (-0.015610 -0.051260  0.000000)
 34:   1456.76   0.000136    0.69  0.000029  ( 0.000000  0.000000  0.005402)
 35:   1467.02   0.000262    1.32  0.000056  (-0.000002 -0.000000  0.007459)
 36:   1467.15   0.000205    1.03  0.000044  ( 0.006584  0.000412  0.000003)
 37:   1472.97   0.009827   49.66  0.002082  (-0.018190  0.041845  0.000000)
 38:   1477.16   0.000063    0.32  0.000013  ( 0.000000 -0.000001 -0.003646)
 39:   1482.89   0.008531   43.11  0.001795  (-0.041907 -0.006247  0.000000)
 40:   1486.94   0.000004    0.02  0.000001  ( 0.000000 -0.000000  0.000879)
 41:   1492.30   0.003734   18.87  0.000781  (-0.000000 -0.000000 -0.027944)
 42:   1506.17   0.007916   40.01  0.001640  ( 0.040057 -0.005968  0.000001)
 43:   1512.15   0.002433   12.30  0.000502  ( 0.000001  0.000000 -0.022408)
 44:   1525.51   0.017507   88.47  0.003581  (-0.001882  0.059814  0.000000)
 45:   1569.72   0.007882   39.83  0.001567  ( 0.000000  0.000000  0.039585)
 46:   1769.11   0.220381  1113.71  0.038874  ( 0.000955 -0.197163 -0.000000)
 47:   3080.13   0.010592   53.53  0.001073  (-0.004019  0.032511 -0.000000)
 48:   3080.81   0.001970    9.95  0.000200  (-0.000000  0.000001  0.014125)
 49:   3091.34   0.003476   17.57  0.000351  ( 0.002573 -0.018556  0.000000)
 50:   3095.53   0.004995   25.24  0.000504  ( 0.000000  0.000000 -0.022439)
 51:   3158.71   0.000200    1.01  0.000020  ( 0.000014  0.000003  0.004445)
 52:   3158.77   0.005151   26.03  0.000509  (-0.022171 -0.004162  0.000003)
 53:   3171.05   0.000237    1.20  0.000023  (-0.000000 -0.000000  0.004832)
 54:   3173.26   0.002595   13.11  0.000255  ( 0.013310  0.008832  0.000000)
 55:   3193.48   0.001821    9.21  0.000178  (-0.000000 -0.000001 -0.013341)
 56:   3194.60   0.001646    8.32  0.000161  (-0.004316 -0.011923  0.000001)
 57:   3216.26   0.001780    8.99  0.000173  ( 0.008773 -0.009784 -0.000000)
 58:   3218.29   0.000066    0.33  0.000006  ( 0.000001 -0.000001  0.002529)
 59:   3219.40   0.000007    0.04  0.000001  ( 0.000000 -0.000000  0.000846)

--------------------------
THERMOCHEMISTRY AT 298.15K
--------------------------

Temperature         ... 298.15 K
Pressure            ... 1.00 atm
Total Mass          ... 101.17 AMU

Throughout the following assumptions are being made:
  (1) The electronic state is orbitally nondegenerate
  (2) There are no thermally accessible electronically excited states
  (3) Hindered rotations indicated by low frequency modes are not
      treated as such but are treated as vibrations and this may
      cause some error
  (4) All equations used are the standard statistical mechanics
      equations for an ideal gas
  (5) All vibrations are strictly harmonic

freq.      70.12  E(vib)   ...       0.50
freq.     118.37  E(vib)   ...       0.44
freq.     134.55  E(vib)   ...       0.42
freq.     188.73  E(vib)   ...       0.36
freq.     195.14  E(vib)   ...       0.36
freq.     230.62  E(vib)   ...       0.32
freq.     282.73  E(vib)   ...       0.28
freq.     306.25  E(vib)   ...       0.26
freq.     350.31  E(vib)   ...       0.23
freq.     416.99  E(vib)   ...       0.18
freq.     439.48  E(vib)   ...       0.17
freq.     500.39  E(vib)   ...       0.14
freq.     623.21  E(vib)   ...       0.09
freq.     884.14  E(vib)   ...       0.04
freq.     903.87  E(vib)   ...       0.03
freq.    1020.21  E(vib)   ...       0.02
freq.    1091.64  E(vib)   ...       0.02
freq.    1093.44  E(vib)   ...       0.02
freq.    1123.93  E(vib)   ...       0.01
freq.    1135.85  E(vib)   ...       0.01
freq.    1137.44  E(vib)   ...       0.01
freq.    1173.30  E(vib)   ...       0.01
freq.    1178.67  E(vib)   ...       0.01
freq.    1193.70  E(vib)   ...       0.01
freq.    1238.88  E(vib)   ...       0.01
freq.    1334.61  E(vib)   ...       0.01
freq.    1451.12  E(vib)   ...       0.00
freq.    1454.95  E(vib)   ...       0.00
freq.    1456.76  E(vib)   ...       0.00
freq.    1467.02  E(vib)   ...       0.00
freq.    1467.15  E(vib)   ...       0.00
freq.    1472.97  E(vib)   ...       0.00
freq.    1477.16  E(vib)   ...       0.00
freq.    1482.89  E(vib)   ...       0.00
freq.    1486.94  E(vib)   ...       0.00
freq.    1492.30  E(vib)   ...       0.00
freq.    1506.17  E(vib)   ...       0.00
freq.    1512.15  E(vib)   ...       0.00
freq.    1525.51  E(vib)   ...       0.00
freq.    1569.72  E(vib)   ...       0.00
freq.    1769.11  E(vib)   ...       0.00
freq.    3080.13  E(vib)   ...       0.00
freq.    3080.81  E(vib)   ...       0.00
freq.    3091.34  E(vib)   ...       0.00
freq.    3095.53  E(vib)   ...       0.00
freq.    3158.71  E(vib)   ...       0.00
freq.    3158.77  E(vib)   ...       0.00
freq.    3171.05  E(vib)   ...       0.00
freq.    3173.26  E(vib)   ...       0.00
freq.    3193.48  E(vib)   ...       0.00
freq.    3194.60  E(vib)   ...       0.00
freq.    3216.26  E(vib)   ...       0.00
freq.    3218.29  E(vib)   ...       0.00
freq.    3219.40  E(vib)   ...       0.00

------------
INNER ENERGY
------------

The inner energy is: U= E(el) + E(ZPE) + E(vib) + E(rot) + E(trans)
    E(el)   - is the total energy from the electronic structure calculation
              = E(kin-el) + E(nuc-el) + E(el-el) + E(nuc-nuc)
    E(ZPE)  - the the zero temperature vibrational energy from the frequency calculation
    E(vib)  - the the finite temperature correction to E(ZPE) due to population
              of excited vibrational states
    E(rot)  - is the rotational thermal energy
    E(trans)- is the translational thermal energy

Summary of contributions to the inner energy U:
Electronic energy                ...   -307.74321508 Eh
Zero point energy                ...      0.18683288 Eh     117.24 kcal/mol
Thermal vibrational correction   ...      0.00639335 Eh       4.01 kcal/mol
Thermal rotational correction    ...      0.00141627 Eh       0.89 kcal/mol
Thermal translational correction ...      0.00141627 Eh       0.89 kcal/mol
-----------------------------------------------------------------------
Total thermal energy                   -307.54715631 Eh

Summary of corrections to the electronic energy:
(perhaps to be used in another calculation)
Total thermal correction                  0.00922589 Eh       5.79 kcal/mol
Non-thermal (ZPE) correction              0.18683288 Eh     117.24 kcal/mol
-----------------------------------------------------------------------
Total correction                          0.19605877 Eh     123.03 kcal/mol

--------
ENTHALPY
--------

The enthalpy is H = U + kB*T
                kB is Boltzmann's constant
Total free energy                 ...   -307.54715631 Eh
Thermal Enthalpy correction       ...      0.00094421 Eh       0.59 kcal/mol
-----------------------------------------------------------------------
Total Enthalpy                    ...   -307.54621210 Eh

Note: Rotational entropy computed according to Herzberg
Infrared and Raman Spectra, Chapter V,1, Van Nostrand Reinhold, 1945
Point Group:  C2, Symmetry Number:   2
Rotational constants in cm-1:     0.156359     0.056540     0.043701

Vibrational entropy computed according to the QRRHO of S. Grimme
Chem.Eur.J. 2012 18 9955

-------
ENTROPY
-------

The entropy contributions are T*S = T*(S(el)+S(vib)+S(rot)+S(trans))
     S(el)   - electronic entropy
     S(vib)  - vibrational entropy
     S(rot)  - rotational entropy
     S(trans)- translational entropy
The entropies will be listed as multiplied by the temperature to get
units of energy

Electronic entropy                ...      0.00000000 Eh      0.00 kcal/mol
Vibrational entropy               ...      0.01111329 Eh      6.97 kcal/mol
Rotational entropy                ...      0.01256641 Eh      7.89 kcal/mol
Translational entropy             ...      0.01888776 Eh     11.85 kcal/mol
-----------------------------------------------------------------------
Final entropy term                ...      0.04256746 Eh     26.71 kcal/mol

In case the symmetry of your molecule has not been determined correctly
or in case you have a reason to use a different symmetry number we print
out the resulting rotational entropy values for sn=1,12 :
 --------------------------------------------------------
|  sn= 1 | S(rot)=       0.01322087 Eh      8.30 kcal/mol|
|  sn= 2 | S(rot)=       0.01256641 Eh      7.89 kcal/mol|
|  sn= 3 | S(rot)=       0.01218358 Eh      7.65 kcal/mol|
|  sn= 4 | S(rot)=       0.01191196 Eh      7.47 kcal/mol|
|  sn= 5 | S(rot)=       0.01170127 Eh      7.34 kcal/mol|
|  sn= 6 | S(rot)=       0.01152912 Eh      7.23 kcal/mol|
|  sn= 7 | S(rot)=       0.01138358 Eh      7.14 kcal/mol|
|  sn= 8 | S(rot)=       0.01125750 Eh      7.06 kcal/mol|
|  sn= 9 | S(rot)=       0.01114629 Eh      6.99 kcal/mol|
|  sn=10 | S(rot)=       0.01104681 Eh      6.93 kcal/mol|
|  sn=11 | S(rot)=       0.01095682 Eh      6.88 kcal/mol|
|  sn=12 | S(rot)=       0.01087467 Eh      6.82 kcal/mol|
 --------------------------------------------------------

                             ****ORCA TERMINATED NORMALLY****
TOTAL RUN TIME: 0 days 0 hours 19 minutes 43 seconds 953 msec
