                         Program Version 5.0.4 -  RELEASE  -
|  1> # ORCA 5.0.4 - /users/bwb16179/postgrad/2024_06/pKa_Reviewer_Comments/Aq_Z=1/1_prot.inp # write input file
|  2> # Basic Mode
|  3> #
|  4> ! Opt Freq wB97X Def2-TZVP D4 SlowConv TightSCF Defgrid2 Def2/J RIJCOSX CPCM(Water)
|  5>
|  6> %PAL NPROCS 4 END
|  7>
|  8> %maxcore 4500
|  9>
| 10> %geom
| 11> Maxiter 150
| 12> END
| 13>
| 14> * xyzfile 1 1 1_prot.xyz
| 15>
| 16>                          ****END OF INPUT****
 Total Charge           Charge          ....    1
 Multiplicity           Mult            ....    1
 Number of Electrons    NEL             ....   52
Dispersion correction           -0.001653232
FINAL SINGLE POINT ENERGY      -305.341535470565
Dispersion correction            ... Starting D4
Dispersion correction           -0.001655527
FINAL SINGLE POINT ENERGY      -305.342278500335
Dispersion correction            ... Starting D4
Dispersion correction           -0.001655580
FINAL SINGLE POINT ENERGY      -305.342282125908
Dispersion correction            ... Starting D4
                    ***********************HURRAY********************

CARTESIAN COORDINATES (ANGSTROEM)
---------------------------------
  C      0.984338   -0.094289   -1.355473
  C     -0.159711   -0.807140   -1.464238
  N      1.048737    0.365951   -0.062055
  N     -0.774178   -0.770013   -0.235495
  C     -0.023855   -0.056131    0.590955
  H      1.752709    0.128276   -2.076838
  H     -0.592552   -1.330042   -2.300448
  C      2.119082    1.180555    0.498869
  C     -2.039716   -1.410961    0.098192
  H      3.051739    0.621230    0.468321
  H      1.867717    1.422082    1.528346
  H      2.213087    2.095854   -0.081551
  H     -0.250447    0.149452    1.625487
  H     -1.936017   -2.488645   -0.008935
  H     -2.813447   -1.042759   -0.571993
  H     -2.294456   -1.164481    1.125888

 Multiplicity           Mult            ....    1
 Number of Electrons    NEL             ....   52
 Basis Dimension        Dim             ....  271

ORBITAL ENERGIES
----------------

  NO   OCC          E(Eh)            E(eV)
   0   2.0000     -14.499962      -394.5640
   1   2.0000     -14.499933      -394.5632
   2   2.0000     -10.365706      -282.0652
   3   2.0000     -10.316948      -280.7384
   4   2.0000     -10.316208      -280.7183
   5   2.0000     -10.306985      -280.4673
   6   2.0000     -10.306901      -280.4650
   7   2.0000      -1.224580       -33.3225
   8   2.0000      -1.101491       -29.9731
   9   2.0000      -0.944648       -25.7052
  10   2.0000      -0.906966       -24.6798
  11   2.0000      -0.844037       -22.9674
  12   2.0000      -0.774564       -21.0770
  13   2.0000      -0.744591       -20.2614
  14   2.0000      -0.686449       -18.6792
  15   2.0000      -0.640895       -17.4396
  16   2.0000      -0.600159       -16.3312
  17   2.0000      -0.590539       -16.0694
  18   2.0000      -0.580719       -15.8022
  19   2.0000      -0.579922       -15.7805
  20   2.0000      -0.568578       -15.4718
  21   2.0000      -0.523938       -14.2571
  22   2.0000      -0.519853       -14.1459
  23   2.0000      -0.518991       -14.1225
  24   2.0000      -0.416649       -11.3376
  25   2.0000      -0.376563       -10.2468
  26   0.0000       0.060384         1.6431
  27   0.0000       0.085677         2.3314
  28   0.0000       0.127896         3.4802
  29   0.0000       0.137424         3.7395
  30   0.0000       0.152913         4.1610

MULLIKEN ATOMIC CHARGES
-----------------------
   0 C :   -0.095740
   1 C :   -0.094510
   2 N :   -0.070095
   3 N :   -0.070177
   4 C :    0.121250
   5 H :    0.233577
   6 H :    0.233513
   7 C :   -0.299297
   8 C :   -0.299967
   9 H :    0.180246
  10 H :    0.175411
  11 H :    0.180017
  12 H :    0.269603
  13 H :    0.180438
  14 H :    0.180252
  15 H :    0.175477
Sum of atomic charges:    1.0000000

LOEWDIN ATOMIC CHARGES
----------------------
   0 C :   -0.147063
   1 C :   -0.146974
   2 N :    0.262099
   3 N :    0.262046
   4 C :   -0.129738
   5 H :    0.164623
   6 H :    0.164604
   7 C :   -0.216881
   8 C :   -0.217056
   9 H :    0.136900
  10 H :    0.140670
  11 H :    0.137302
  12 H :    0.174507
  13 H :    0.136958
  14 H :    0.137373
  15 H :    0.140630

  Mayer bond orders larger than 0.100000
B(  0-C ,  1-C ) :   1.7039 B(  0-C ,  2-N ) :   1.1499 B(  0-C ,  5-H ) :   0.9278
B(  1-C ,  3-N ) :   1.1500 B(  1-C ,  6-H ) :   0.9279 B(  2-N ,  4-C ) :   1.3927
B(  2-N ,  7-C ) :   0.8684 B(  3-N ,  4-C ) :   1.3921 B(  3-N ,  8-C ) :   0.8687
B(  4-C , 12-H ) :   0.8962 B(  7-C ,  9-H ) :   0.9586 B(  7-C , 10-H ) :   0.9587
B(  7-C , 11-H ) :   0.9590 B(  8-C , 13-H ) :   0.9586 B(  8-C , 14-H ) :   0.9589
B(  8-C , 15-H ) :   0.9586

Dispersion correction           -0.001655561
FINAL SINGLE POINT ENERGY      -305.342282552686

DIPOLE MOMENT
-------------
                                X             Y             Z
Electronic contribution:      0.29478      -0.26349      -1.32923
Nuclear contribution   :     -0.40424       0.36383       1.81873
                        -----------------------------------------
Total Dipole Moment    :     -0.10946       0.10034       0.48951
                        -----------------------------------------
Magnitude (a.u.)       :      0.51153
Magnitude (Debye)      :      1.30021

Dispersion correction in the Hessian             ... Starting D4

VIBRATIONAL FREQUENCIES
-----------------------

Scaling factor for frequencies =  1.000000000  (already applied!)

   0:         0.00 cm**-1
   1:         0.00 cm**-1
   2:         0.00 cm**-1
   3:         0.00 cm**-1
   4:         0.00 cm**-1
   5:         0.00 cm**-1
   6:        86.17 cm**-1
   7:       137.89 cm**-1
   8:       194.48 cm**-1
   9:       272.93 cm**-1
  10:       281.92 cm**-1
  11:       422.40 cm**-1
  12:       620.30 cm**-1
  13:       644.17 cm**-1
  14:       647.12 cm**-1
  15:       736.36 cm**-1
  16:       776.66 cm**-1
  17:       893.91 cm**-1
  18:       917.47 cm**-1
  19:      1054.46 cm**-1
  20:      1055.56 cm**-1
  21:      1109.42 cm**-1
  22:      1114.45 cm**-1
  23:      1130.49 cm**-1
  24:      1156.16 cm**-1
  25:      1163.24 cm**-1
  26:      1210.77 cm**-1
  27:      1302.97 cm**-1
  28:      1395.08 cm**-1
  29:      1436.73 cm**-1
  30:      1457.67 cm**-1
  31:      1462.22 cm**-1
  32:      1473.63 cm**-1
  33:      1475.08 cm**-1
  34:      1476.17 cm**-1
  35:      1507.43 cm**-1
  36:      1514.26 cm**-1
  37:      1648.17 cm**-1
  38:      1656.12 cm**-1
  39:      3104.97 cm**-1
  40:      3105.69 cm**-1
  41:      3196.11 cm**-1
  42:      3196.50 cm**-1
  43:      3210.98 cm**-1
  44:      3211.77 cm**-1
  45:      3301.41 cm**-1
  46:      3302.19 cm**-1
  47:      3319.74 cm**-1

IR SPECTRUM
-----------

 Mode   freq       eps      Int      T**2         TX        TY        TZ
       cm**-1   L/(mol*cm) km/mol    a.u.
----------------------------------------------------------------------------
  6:     86.17   0.000074    0.37  0.000268  ( 0.008862 -0.012977  0.004605)
  7:    137.89   0.000045    0.23  0.000102  (-0.004361  0.008129 -0.004061)
  8:    194.48   0.001263    6.38  0.002026  (-0.021811  0.037323 -0.012547)
  9:    272.93   0.000007    0.03  0.000008  ( 0.001441 -0.000953 -0.002198)
 10:    281.92   0.000206    1.04  0.000228  (-0.003166  0.003420  0.014357)
 11:    422.40   0.000089    0.45  0.000066  (-0.007081 -0.003878 -0.000700)
 12:    620.30   0.000293    1.48  0.000147  (-0.001477  0.000348  0.012046)
 13:    644.17   0.009264   46.82  0.004488  (-0.032934  0.055651 -0.017498)
 14:    647.12   0.000215    1.08  0.000103  ( 0.005493 -0.008066  0.002866)
 15:    736.36   0.001201    6.07  0.000509  ( 0.019148  0.011844  0.001356)
 16:    776.66   0.013097   66.19  0.005262  (-0.036028  0.060057 -0.018905)
 17:    893.91   0.008221   41.55  0.002870  ( 0.026681 -0.044069  0.014701)
 18:    917.47   0.000006    0.03  0.000002  ( 0.000852 -0.001190  0.000255)
 19:   1054.46   0.001012    5.11  0.000299  ( 0.014577  0.009262  0.001066)
 20:   1055.56   0.000343    1.73  0.000101  ( 0.001057  0.003578  0.009349)
 21:   1109.42   0.002716   13.72  0.000764  (-0.011671 -0.000037  0.025053)
 22:   1114.45   0.002389   12.07  0.000669  ( 0.018520  0.014200  0.011153)
 23:   1130.49   0.000166    0.84  0.000046  (-0.003000 -0.000142  0.006061)
 24:   1156.16   0.000066    0.33  0.000018  ( 0.004106  0.000456  0.000902)
 25:   1163.24   0.000169    0.86  0.000045  ( 0.001989 -0.006337  0.001144)
 26:   1210.77   0.024786  125.26  0.006388  (-0.067683 -0.042139 -0.005626)
 27:   1302.97   0.000101    0.51  0.000024  (-0.004083 -0.002691 -0.000551)
 28:   1395.08   0.000249    1.26  0.000056  ( 0.001552 -0.001313 -0.007182)
 29:   1436.73   0.000020    0.10  0.000004  (-0.001848 -0.000132  0.000905)
 30:   1457.67   0.003743   18.92  0.000801  ( 0.023330  0.013045  0.009321)
 31:   1462.22   0.003673   18.56  0.000784  ( 0.011473  0.002730 -0.025393)
 32:   1473.63   0.002587   13.07  0.000548  (-0.007803  0.019613  0.010110)
 33:   1475.08   0.003041   15.37  0.000643  ( 0.014721 -0.020628 -0.001081)
 34:   1476.17   0.005476   27.67  0.001158  ( 0.013239 -0.024238  0.019873)
 35:   1507.43   0.000667    3.37  0.000138  (-0.008951 -0.003407  0.006816)
 36:   1514.26   0.004164   21.04  0.000858  (-0.004632  0.008323  0.027700)
 37:   1648.17   0.002252   11.38  0.000426  (-0.004828  0.003524  0.019768)
 38:   1656.12   0.025063  126.66  0.004723  (-0.057910 -0.036408 -0.006590)
 39:   3104.97   0.003728   18.84  0.000375  ( 0.016521  0.010051 -0.000821)
 40:   3105.69   0.002118   10.70  0.000213  ( 0.011341  0.007798  0.004838)
 41:   3196.11   0.000489    2.47  0.000048  (-0.003165  0.005823 -0.001952)
 42:   3196.50   0.000524    2.65  0.000051  ( 0.003761 -0.005783  0.001901)
 43:   3210.98   0.000252    1.27  0.000024  ( 0.001671  0.002464  0.003950)
 44:   3211.77   0.000301    1.52  0.000029  (-0.003491 -0.000558  0.004088)
 45:   3301.41   0.010232   51.71  0.000967  ( 0.007365 -0.005226 -0.029759)
 46:   3302.19   0.004578   23.14  0.000433  ( 0.017345  0.011120  0.002853)
 47:   3319.74   0.001781    9.00  0.000167  ( 0.002396 -0.002469 -0.012472)

--------------------------
THERMOCHEMISTRY AT 298.15K
--------------------------

Temperature         ... 298.15 K
Pressure            ... 1.00 atm
Total Mass          ... 97.14 AMU

Throughout the following assumptions are being made:
  (1) The electronic state is orbitally nondegenerate
  (2) There are no thermally accessible electronically excited states
  (3) Hindered rotations indicated by low frequency modes are not
      treated as such but are treated as vibrations and this may
      cause some error
  (4) All equations used are the standard statistical mechanics
      equations for an ideal gas
  (5) All vibrations are strictly harmonic

freq.      86.17  E(vib)   ...       0.48
freq.     137.89  E(vib)   ...       0.42
freq.     194.48  E(vib)   ...       0.36
freq.     272.93  E(vib)   ...       0.29
freq.     281.92  E(vib)   ...       0.28
freq.     422.40  E(vib)   ...       0.18
freq.     620.30  E(vib)   ...       0.09
freq.     644.17  E(vib)   ...       0.09
freq.     647.12  E(vib)   ...       0.09
freq.     736.36  E(vib)   ...       0.06
freq.     776.66  E(vib)   ...       0.05
freq.     893.91  E(vib)   ...       0.03
freq.     917.47  E(vib)   ...       0.03
freq.    1054.46  E(vib)   ...       0.02
freq.    1055.56  E(vib)   ...       0.02
freq.    1109.42  E(vib)   ...       0.02
freq.    1114.45  E(vib)   ...       0.01
freq.    1130.49  E(vib)   ...       0.01
freq.    1156.16  E(vib)   ...       0.01
freq.    1163.24  E(vib)   ...       0.01
freq.    1210.77  E(vib)   ...       0.01
freq.    1302.97  E(vib)   ...       0.01
freq.    1395.08  E(vib)   ...       0.00
freq.    1436.73  E(vib)   ...       0.00
freq.    1457.67  E(vib)   ...       0.00
freq.    1462.22  E(vib)   ...       0.00
freq.    1473.63  E(vib)   ...       0.00
freq.    1475.08  E(vib)   ...       0.00
freq.    1476.17  E(vib)   ...       0.00
freq.    1507.43  E(vib)   ...       0.00
freq.    1514.26  E(vib)   ...       0.00
freq.    1648.17  E(vib)   ...       0.00
freq.    1656.12  E(vib)   ...       0.00
freq.    3104.97  E(vib)   ...       0.00
freq.    3105.69  E(vib)   ...       0.00
freq.    3196.11  E(vib)   ...       0.00
freq.    3196.50  E(vib)   ...       0.00
freq.    3210.98  E(vib)   ...       0.00
freq.    3211.77  E(vib)   ...       0.00
freq.    3301.41  E(vib)   ...       0.00
freq.    3302.19  E(vib)   ...       0.00
freq.    3319.74  E(vib)   ...       0.00

------------
INNER ENERGY
------------

The inner energy is: U= E(el) + E(ZPE) + E(vib) + E(rot) + E(trans)
    E(el)   - is the total energy from the electronic structure calculation
              = E(kin-el) + E(nuc-el) + E(el-el) + E(nuc-nuc)
    E(ZPE)  - the the zero temperature vibrational energy from the frequency calculation
    E(vib)  - the the finite temperature correction to E(ZPE) due to population
              of excited vibrational states
    E(rot)  - is the rotational thermal energy
    E(trans)- is the translational thermal energy

Summary of contributions to the inner energy U:
Electronic energy                ...   -305.34228255 Eh
Zero point energy                ...      0.14211487 Eh      89.18 kcal/mol
Thermal vibrational correction   ...      0.00414673 Eh       2.60 kcal/mol
Thermal rotational correction    ...      0.00141627 Eh       0.89 kcal/mol
Thermal translational correction ...      0.00141627 Eh       0.89 kcal/mol
-----------------------------------------------------------------------
Total thermal energy                   -305.19318842 Eh

Summary of corrections to the electronic energy:
(perhaps to be used in another calculation)
Total thermal correction                  0.00697927 Eh       4.38 kcal/mol
Non-thermal (ZPE) correction              0.14211487 Eh      89.18 kcal/mol
-----------------------------------------------------------------------
Total correction                          0.14909413 Eh      93.56 kcal/mol

--------
ENTHALPY
--------

The enthalpy is H = U + kB*T
                kB is Boltzmann's constant
Total free energy                 ...   -305.19318842 Eh
Thermal Enthalpy correction       ...      0.00094421 Eh       0.59 kcal/mol
-----------------------------------------------------------------------
Total Enthalpy                    ...   -305.19224421 Eh

Note: Only C1 symmetry has been detected, increase convergence thresholds
      if your molecule has a higher symmetry. Symmetry factor of 1.0 is
      used for the rotational entropy correction.

Note: Rotational entropy computed according to Herzberg
Infrared and Raman Spectra, Chapter V,1, Van Nostrand Reinhold, 1945
Point Group:  C1, Symmetry Number:   1
Rotational constants in cm-1:     0.229397     0.069295     0.054318

Vibrational entropy computed according to the QRRHO of S. Grimme
Chem.Eur.J. 2012 18 9955

-------
ENTROPY
-------

The entropy contributions are T*S = T*(S(el)+S(vib)+S(rot)+S(trans))
     S(el)   - electronic entropy
     S(vib)  - vibrational entropy
     S(rot)  - rotational entropy
     S(trans)- translational entropy
The entropies will be listed as multiplied by the temperature to get
units of energy

Electronic entropy                ...      0.00000000 Eh      0.00 kcal/mol
Vibrational entropy               ...      0.00702174 Eh      4.41 kcal/mol
Rotational entropy                ...      0.01284122 Eh      8.06 kcal/mol
Translational entropy             ...      0.01883016 Eh     11.82 kcal/mol
-----------------------------------------------------------------------
Final entropy term                ...      0.03869312 Eh     24.28 kcal/mol

In case the symmetry of your molecule has not been determined correctly
or in case you have a reason to use a different symmetry number we print
out the resulting rotational entropy values for sn=1,12 :
 --------------------------------------------------------
|  sn= 1 | S(rot)=       0.01284122 Eh      8.06 kcal/mol|
|  sn= 2 | S(rot)=       0.01218676 Eh      7.65 kcal/mol|
|  sn= 3 | S(rot)=       0.01180393 Eh      7.41 kcal/mol|
|  sn= 4 | S(rot)=       0.01153231 Eh      7.24 kcal/mol|
|  sn= 5 | S(rot)=       0.01132162 Eh      7.10 kcal/mol|
|  sn= 6 | S(rot)=       0.01114947 Eh      7.00 kcal/mol|
|  sn= 7 | S(rot)=       0.01100393 Eh      6.91 kcal/mol|
|  sn= 8 | S(rot)=       0.01087785 Eh      6.83 kcal/mol|
|  sn= 9 | S(rot)=       0.01076664 Eh      6.76 kcal/mol|
|  sn=10 | S(rot)=       0.01066716 Eh      6.69 kcal/mol|
|  sn=11 | S(rot)=       0.01057717 Eh      6.64 kcal/mol|
|  sn=12 | S(rot)=       0.01049502 Eh      6.59 kcal/mol|
 --------------------------------------------------------

-------------------
GIBBS FREE ENERGY
-------------------

The Gibbs free energy is G = H - T*S

                             ****ORCA TERMINATED NORMALLY****
TOTAL RUN TIME: 0 days 0 hours 13 minutes 34 seconds 313 msec
