                         Program Version 5.0.4 -  RELEASE  -
|  1> # ORCA 5.0.4 - /users/bwb16179/postgrad/2024_06/pKa_Reviewer_Comments/Aq_Z=1/2_prot.inp # write input file
|  2> # Basic Mode
|  3> #
|  4> ! Opt Freq wB97X Def2-TZVP D4 SlowConv TightSCF Defgrid2 Def2/J RIJCOSX CPCM(Water)
|  5>
|  6> %PAL NPROCS 4 END
|  7>
|  8> %maxcore 4500
|  9>
| 10> %geom
| 11> Maxiter 150
| 12> END
| 13>
| 14> * xyzfile 1 1 2_prot.xyz
| 15>
| 16>                          ****END OF INPUT****
 Total Charge           Charge          ....    1
 Multiplicity           Mult            ....    1
 Number of Electrons    NEL             ....   68
Dispersion correction           -0.002863960
FINAL SINGLE POINT ENERGY      -383.994077833547
Dispersion correction            ... Starting D4
Dispersion correction           -0.002869806
FINAL SINGLE POINT ENERGY      -383.995002909172
Dispersion correction            ... Starting D4
Dispersion correction           -0.002870138
FINAL SINGLE POINT ENERGY      -383.995008341060
Dispersion correction            ... Starting D4
                    ***********************HURRAY********************

CARTESIAN COORDINATES (ANGSTROEM)
---------------------------------
  C     -0.000001    0.679971   -0.659750
  C      0.000000   -0.679970   -0.659750
  N     -0.000000    1.075182    0.665784
  N      0.000000   -1.075182    0.665784
  C     -0.000001    0.000000    1.437731
  C      0.000000    2.453447    1.132016
  C      0.000001   -2.453447    1.132015
  H     -0.890468    2.960400    0.764073
  H     -0.890467   -2.960399    0.764072
  H      0.890469   -2.960398    0.764071
  H      0.890469    2.960398    0.764074
  H     -0.000000    2.454400    2.218853
  H      0.000001   -2.454402    2.218852
  H     -0.000001    0.000000    2.516596
  C     -0.000001    1.662971   -1.772588
  C     -0.000000   -1.662972   -1.772587
  H      0.883995    2.302247   -1.730012
  H      0.883994   -2.302250   -1.730008
  H     -0.883996   -2.302247   -1.730010
  H     -0.883995    2.302249   -1.730010
  H     -0.000002    1.141440   -2.727740
  H      0.000002   -1.141442   -2.727740

 Multiplicity           Mult            ....    1
 Number of Electrons    NEL             ....   68
 Basis Dimension        Dim             ....  357

ORBITAL ENERGIES
----------------

  NO   OCC          E(Eh)            E(eV)
   0   2.0000     -14.490983      -394.3197
   1   2.0000     -14.490954      -394.3189
   2   2.0000     -10.358330      -281.8645
   3   2.0000     -10.315981      -280.7121
   4   2.0000     -10.315284      -280.6932
   5   2.0000     -10.304915      -280.4110
   6   2.0000     -10.304909      -280.4108
   7   2.0000     -10.265762      -279.3456
   8   2.0000     -10.265752      -279.3453
   9   2.0000      -1.216917       -33.1140
  10   2.0000      -1.096832       -29.8463
  11   2.0000      -0.960455       -26.1353
  12   2.0000      -0.915281       -24.9061
  13   2.0000      -0.883445       -24.0398
  14   2.0000      -0.830893       -22.6097
  15   2.0000      -0.830419       -22.5968
  16   2.0000      -0.732189       -19.9239
  17   2.0000      -0.728017       -19.8103
  18   2.0000      -0.663103       -18.0439
  19   2.0000      -0.641634       -17.4598
  20   2.0000      -0.603412       -16.4197
  21   2.0000      -0.588283       -16.0080
  22   2.0000      -0.582737       -15.8571
  23   2.0000      -0.553321       -15.0566
  24   2.0000      -0.540442       -14.7062
  25   2.0000      -0.536797       -14.6070
  26   2.0000      -0.531491       -14.4626
  27   2.0000      -0.524990       -14.2857
  28   2.0000      -0.508513       -13.8374
  29   2.0000      -0.508107       -13.8263
  30   2.0000      -0.505806       -13.7637
  31   2.0000      -0.496474       -13.5097
  32   2.0000      -0.406521       -11.0620
  33   2.0000      -0.347685        -9.4610
  34   0.0000       0.064724         1.7612
  35   0.0000       0.108103         2.9416
  36   0.0000       0.110362         3.0031
  37   0.0000       0.130972         3.5639
  38   0.0000       0.148910         4.0520

MULLIKEN ATOMIC CHARGES
-----------------------
   0 C :    0.026596
   1 C :    0.026658
   2 N :   -0.080073
   3 N :   -0.080084
   4 C :    0.120845
   5 C :   -0.313365
   6 C :   -0.313363
   7 H :    0.178991
   8 H :    0.178988
   9 H :    0.178990
  10 H :    0.178991
  11 H :    0.177483
  12 H :    0.177487
  13 H :    0.264093
  14 C :   -0.343033
  15 C :   -0.343023
  16 H :    0.164792
  17 H :    0.164791
  18 H :    0.164790
  19 H :    0.164793
  20 H :    0.152327
  21 H :    0.152327
Sum of atomic charges:    1.0000000

LOEWDIN ATOMIC CHARGES
----------------------
   0 C :   -0.178442
   1 C :   -0.178442
   2 N :    0.279318
   3 N :    0.279318
   4 C :   -0.138205
   5 C :   -0.219735
   6 C :   -0.219736
   7 H :    0.136502
   8 H :    0.136502
   9 H :    0.136502
  10 H :    0.136502
  11 H :    0.140520
  12 H :    0.140521
  13 H :    0.171964
  14 C :   -0.239223
  15 C :   -0.239223
  16 H :    0.142336
  17 H :    0.142336
  18 H :    0.142336
  19 H :    0.142336
  20 H :    0.143006
  21 H :    0.143005

  Mayer bond orders larger than 0.100000
B(  0-C ,  1-C ) :   1.7324 B(  0-C ,  2-N ) :   1.1627 B(  0-C , 14-C ) :   0.8594
B(  1-C ,  3-N ) :   1.1627 B(  1-C , 15-C ) :   0.8594 B(  2-N ,  4-C ) :   1.3955
B(  2-N ,  5-C ) :   0.8640 B(  3-N ,  4-C ) :   1.3955 B(  3-N ,  6-C ) :   0.8640
B(  4-C , 13-H ) :   0.8963 B(  5-C ,  7-H ) :   0.9603 B(  5-C , 10-H ) :   0.9603
B(  5-C , 11-H ) :   0.9566 B(  6-C ,  8-H ) :   0.9603 B(  6-C ,  9-H ) :   0.9603
B(  6-C , 12-H ) :   0.9566 B( 14-C , 16-H ) :   0.9710 B( 14-C , 19-H ) :   0.9710
B( 14-C , 20-H ) :   0.9866 B( 15-C , 17-H ) :   0.9710 B( 15-C , 18-H ) :   0.9710
B( 15-C , 21-H ) :   0.9866

Dispersion correction           -0.002870122
FINAL SINGLE POINT ENERGY      -383.995009299994

DIPOLE MOMENT
-------------
                                X             Y             Z
Electronic contribution:     -0.00000       0.00000       3.51437
Nuclear contribution   :      0.00000      -0.00000      -2.43562
                        -----------------------------------------
Total Dipole Moment    :      0.00000      -0.00000       1.07875
                        -----------------------------------------
Magnitude (a.u.)       :      1.07875
Magnitude (Debye)      :      2.74196

Dispersion correction in the Hessian             ... Starting D4

VIBRATIONAL FREQUENCIES
-----------------------

Scaling factor for frequencies =  1.000000000  (already applied!)

   0:         0.00 cm**-1
   1:         0.00 cm**-1
   2:         0.00 cm**-1
   3:         0.00 cm**-1
   4:         0.00 cm**-1
   5:         0.00 cm**-1
   6:        90.12 cm**-1
   7:        94.00 cm**-1
   8:       126.53 cm**-1
   9:       152.63 cm**-1
  10:       156.65 cm**-1
  11:       173.24 cm**-1
  12:       275.98 cm**-1
  13:       276.21 cm**-1
  14:       291.26 cm**-1
  15:       300.00 cm**-1
  16:       318.04 cm**-1
  17:       535.00 cm**-1
  18:       574.70 cm**-1
  19:       615.79 cm**-1
  20:       641.97 cm**-1
  21:       693.64 cm**-1
  22:       737.10 cm**-1
  23:       855.19 cm**-1
  24:       866.40 cm**-1
  25:       988.01 cm**-1
  26:      1065.65 cm**-1
  27:      1086.04 cm**-1
  28:      1088.39 cm**-1
  29:      1114.25 cm**-1
  30:      1127.04 cm**-1
  31:      1153.22 cm**-1
  32:      1158.68 cm**-1
  33:      1190.90 cm**-1
  34:      1237.31 cm**-1
  35:      1287.56 cm**-1
  36:      1391.99 cm**-1
  37:      1418.02 cm**-1
  38:      1432.55 cm**-1
  39:      1453.15 cm**-1
  40:      1463.21 cm**-1
  41:      1463.92 cm**-1
  42:      1464.03 cm**-1
  43:      1467.15 cm**-1
  44:      1471.27 cm**-1
  45:      1472.04 cm**-1
  46:      1476.64 cm**-1
  47:      1479.71 cm**-1
  48:      1489.01 cm**-1
  49:      1520.44 cm**-1
  50:      1538.41 cm**-1
  51:      1652.91 cm**-1
  52:      1725.30 cm**-1
  53:      3076.64 cm**-1
  54:      3077.80 cm**-1
  55:      3098.56 cm**-1
  56:      3098.88 cm**-1
  57:      3144.76 cm**-1
  58:      3144.91 cm**-1
  59:      3180.89 cm**-1
  60:      3185.01 cm**-1
  61:      3186.22 cm**-1
  62:      3186.23 cm**-1
  63:      3205.10 cm**-1
  64:      3205.14 cm**-1
  65:      3299.14 cm**-1

IR SPECTRUM
-----------

 Mode   freq       eps      Int      T**2         TX        TY        TZ
       cm**-1   L/(mol*cm) km/mol    a.u.
----------------------------------------------------------------------------
  6:     90.12   0.000086    0.43  0.000297  (-0.017248 -0.000000  0.000000)
  7:     94.00   0.000000    0.00  0.000000  (-0.000004  0.000000  0.000000)
  8:    126.53   0.000000    0.00  0.000000  ( 0.000001  0.000000  0.000000)
  9:    152.63   0.000160    0.81  0.000326  ( 0.018069  0.000000 -0.000000)
 10:    156.65   0.000000    0.00  0.000000  (-0.000005 -0.000000  0.000000)
 11:    173.24   0.001937    9.79  0.003490  (-0.059073 -0.000000  0.000000)
 12:    275.98   0.000263    1.33  0.000298  (-0.000000  0.017251 -0.000022)
 13:    276.21   0.000244    1.23  0.000276  ( 0.000000 -0.000023 -0.016612)
 14:    291.26   0.000074    0.37  0.000079  (-0.000000  0.000000  0.008879)
 15:    300.00   0.002235   11.29  0.002324  ( 0.048212  0.000000  0.000000)
 16:    318.04   0.000000    0.00  0.000000  (-0.000000 -0.000000  0.000000)
 17:    535.00   0.000334    1.69  0.000195  (-0.000000  0.013957  0.000000)
 18:    574.70   0.000648    3.28  0.000352  (-0.000000  0.018765 -0.000000)
 19:    615.79   0.000471    2.38  0.000239  ( 0.000000 -0.000000 -0.015455)
 20:    641.97   0.003375   17.06  0.001641  (-0.040506  0.000000  0.000000)
 21:    693.64   0.000000    0.00  0.000000  (-0.000000  0.000001  0.000000)
 22:    737.10   0.000488    2.47  0.000207  (-0.000000 -0.000000 -0.014374)
 23:    855.19   0.001885    9.53  0.000688  (-0.000000  0.026227 -0.000000)
 24:    866.40   0.004392   22.20  0.001582  ( 0.039774  0.000000  0.000000)
 25:    988.01   0.000017    0.08  0.000005  (-0.000000 -0.000000  0.002297)
 26:   1065.65   0.000866    4.38  0.000254  (-0.015928 -0.000000  0.000000)
 27:   1086.04   0.000000    0.00  0.000000  ( 0.000000  0.000000 -0.000000)
 28:   1088.39   0.001614    8.16  0.000463  ( 0.000000  0.021511 -0.000000)
 29:   1114.25   0.000121    0.61  0.000034  ( 0.000000  0.000000 -0.005812)
 30:   1127.04   0.003274   16.55  0.000907  ( 0.000000  0.030110 -0.000000)
 31:   1153.22   0.000000    0.00  0.000000  ( 0.000000  0.000000  0.000000)
 32:   1158.68   0.000072    0.36  0.000019  (-0.004396 -0.000000 -0.000000)
 33:   1190.90   0.000003    0.01  0.000001  (-0.000000  0.000000  0.000824)
 34:   1237.31   0.017036   86.09  0.004297  ( 0.000000  0.065549  0.000000)
 35:   1287.56   0.000006    0.03  0.000001  ( 0.000000  0.001222 -0.000000)
 36:   1391.99   0.000077    0.39  0.000017  ( 0.000000 -0.000000 -0.004143)
 37:   1418.02   0.000879    4.44  0.000194  (-0.000000  0.013910  0.000000)
 38:   1432.55   0.000609    3.08  0.000133  ( 0.000000 -0.000000 -0.011518)
 39:   1453.15   0.005612   28.36  0.001205  ( 0.000000  0.034715 -0.000000)
 40:   1463.21   0.000957    4.83  0.000204  (-0.000000 -0.000000 -0.014284)
 41:   1463.92   0.000000    0.00  0.000000  ( 0.000031 -0.000000 -0.000000)
 42:   1464.03   0.001004    5.08  0.000214  ( 0.014631  0.000000 -0.000000)
 43:   1467.15   0.000592    2.99  0.000126  (-0.000000 -0.011223 -0.000001)
 44:   1471.27   0.000000    0.00  0.000000  ( 0.000011 -0.000000  0.000000)
 45:   1472.04   0.015263   77.13  0.003236  ( 0.056884 -0.000000  0.000000)
 46:   1476.64   0.013676   69.11  0.002890  (-0.000000 -0.000000  0.053761)
 47:   1479.71   0.001326    6.70  0.000280  (-0.000000 -0.016722 -0.000000)
 48:   1489.01   0.001294    6.54  0.000271  ( 0.000000  0.000000  0.016468)
 49:   1520.44   0.000364    1.84  0.000075  ( 0.000000  0.008638  0.000000)
 50:   1538.41   0.000052    0.26  0.000011  ( 0.000000 -0.000000 -0.003243)
 51:   1652.91   0.032665  165.08  0.006167  (-0.000000 -0.078531  0.000000)
 52:   1725.30   0.008069   40.78  0.001460  (-0.000000  0.000000  0.038204)
 53:   3076.64   0.003731   18.85  0.000378  (-0.000000  0.019453  0.000001)
 54:   3077.80   0.001556    7.86  0.000158  ( 0.000000  0.000001 -0.012561)
 55:   3098.56   0.005628   28.44  0.000567  ( 0.000000  0.023808 -0.000002)
 56:   3098.88   0.000349    1.76  0.000035  ( 0.000000  0.000010  0.005927)
 57:   3144.76   0.003091   15.62  0.000307  ( 0.017515  0.000000  0.000000)
 58:   3144.91   0.000000    0.00  0.000000  (-0.000007  0.000000  0.000000)
 59:   3180.89   0.000986    4.98  0.000097  (-0.000000  0.009833 -0.000000)
 60:   3185.01   0.001762    8.91  0.000173  ( 0.000000  0.000000  0.013141)
 61:   3186.22   0.000001    0.01  0.000000  ( 0.000383  0.000000  0.000000)
 62:   3186.23   0.001340    6.77  0.000131  ( 0.011457  0.000000 -0.000000)
 63:   3205.10   0.000716    3.62  0.000070  (-0.000000  0.000013 -0.008348)
 64:   3205.14   0.000145    0.73  0.000014  (-0.000000  0.003755  0.000028)
 65:   3299.14   0.009458   47.80  0.000895  (-0.000000 -0.000000 -0.029910)

--------------------------
THERMOCHEMISTRY AT 298.15K
--------------------------

Temperature         ... 298.15 K
Pressure            ... 1.00 atm
Total Mass          ... 125.19 AMU

Throughout the following assumptions are being made:
  (1) The electronic state is orbitally nondegenerate
  (2) There are no thermally accessible electronically excited states
  (3) Hindered rotations indicated by low frequency modes are not
      treated as such but are treated as vibrations and this may
      cause some error
  (4) All equations used are the standard statistical mechanics
      equations for an ideal gas
  (5) All vibrations are strictly harmonic

freq.      90.12  E(vib)   ...       0.47
freq.      94.00  E(vib)   ...       0.47
freq.     126.53  E(vib)   ...       0.43
freq.     152.63  E(vib)   ...       0.40
freq.     156.65  E(vib)   ...       0.40
freq.     173.24  E(vib)   ...       0.38
freq.     275.98  E(vib)   ...       0.28
freq.     276.21  E(vib)   ...       0.28
freq.     291.26  E(vib)   ...       0.27
freq.     300.00  E(vib)   ...       0.26
freq.     318.04  E(vib)   ...       0.25
freq.     535.00  E(vib)   ...       0.13
freq.     574.70  E(vib)   ...       0.11
freq.     615.79  E(vib)   ...       0.10
freq.     641.97  E(vib)   ...       0.09
freq.     693.64  E(vib)   ...       0.07
freq.     737.10  E(vib)   ...       0.06
freq.     855.19  E(vib)   ...       0.04
freq.     866.40  E(vib)   ...       0.04
freq.     988.01  E(vib)   ...       0.02
freq.    1065.65  E(vib)   ...       0.02
freq.    1086.04  E(vib)   ...       0.02
freq.    1088.39  E(vib)   ...       0.02
freq.    1114.25  E(vib)   ...       0.01
freq.    1127.04  E(vib)   ...       0.01
freq.    1153.22  E(vib)   ...       0.01
freq.    1158.68  E(vib)   ...       0.01
freq.    1190.90  E(vib)   ...       0.01
freq.    1237.31  E(vib)   ...       0.01
freq.    1287.56  E(vib)   ...       0.01
freq.    1391.99  E(vib)   ...       0.00
freq.    1418.02  E(vib)   ...       0.00
freq.    1432.55  E(vib)   ...       0.00
freq.    1453.15  E(vib)   ...       0.00
freq.    1463.21  E(vib)   ...       0.00
freq.    1463.92  E(vib)   ...       0.00
freq.    1464.03  E(vib)   ...       0.00
freq.    1467.15  E(vib)   ...       0.00
freq.    1471.27  E(vib)   ...       0.00
freq.    1472.04  E(vib)   ...       0.00
freq.    1476.64  E(vib)   ...       0.00
freq.    1479.71  E(vib)   ...       0.00
freq.    1489.01  E(vib)   ...       0.00
freq.    1520.44  E(vib)   ...       0.00
freq.    1538.41  E(vib)   ...       0.00
freq.    1652.91  E(vib)   ...       0.00
freq.    1725.30  E(vib)   ...       0.00
freq.    3076.64  E(vib)   ...       0.00
freq.    3077.80  E(vib)   ...       0.00
freq.    3098.56  E(vib)   ...       0.00
freq.    3098.88  E(vib)   ...       0.00
freq.    3144.76  E(vib)   ...       0.00
freq.    3144.91  E(vib)   ...       0.00
freq.    3180.89  E(vib)   ...       0.00
freq.    3185.01  E(vib)   ...       0.00
freq.    3186.22  E(vib)   ...       0.00
freq.    3186.23  E(vib)   ...       0.00
freq.    3205.10  E(vib)   ...       0.00
freq.    3205.14  E(vib)   ...       0.00
freq.    3299.14  E(vib)   ...       0.00

------------
INNER ENERGY
------------

The inner energy is: U= E(el) + E(ZPE) + E(vib) + E(rot) + E(trans)
    E(el)   - is the total energy from the electronic structure calculation
              = E(kin-el) + E(nuc-el) + E(el-el) + E(nuc-nuc)
    E(ZPE)  - the the zero temperature vibrational energy from the frequency calculation
    E(vib)  - the the finite temperature correction to E(ZPE) due to population
              of excited vibrational states
    E(rot)  - is the rotational thermal energy
    E(trans)- is the translational thermal energy

Summary of contributions to the inner energy U:
Electronic energy                ...   -383.99500930 Eh
Zero point energy                ...      0.19760948 Eh     124.00 kcal/mol
Thermal vibrational correction   ...      0.00755287 Eh       4.74 kcal/mol
Thermal rotational correction    ...      0.00141627 Eh       0.89 kcal/mol
Thermal translational correction ...      0.00141627 Eh       0.89 kcal/mol
-----------------------------------------------------------------------
Total thermal energy                   -383.78701440 Eh

Summary of corrections to the electronic energy:
(perhaps to be used in another calculation)
Total thermal correction                  0.01038542 Eh       6.52 kcal/mol
Non-thermal (ZPE) correction              0.19760948 Eh     124.00 kcal/mol
-----------------------------------------------------------------------
Total correction                          0.20799490 Eh     130.52 kcal/mol

--------
ENTHALPY
--------

The enthalpy is H = U + kB*T
                kB is Boltzmann's constant
Total free energy                 ...   -383.78701440 Eh
Thermal Enthalpy correction       ...      0.00094421 Eh       0.59 kcal/mol
-----------------------------------------------------------------------
Total Enthalpy                    ...   -383.78607019 Eh

Note: Rotational entropy computed according to Herzberg
Infrared and Raman Spectra, Chapter V,1, Van Nostrand Reinhold, 1945
Point Group:  C2v, Symmetry Number:   2
Rotational constants in cm-1:     0.081833     0.050723     0.032070

Vibrational entropy computed according to the QRRHO of S. Grimme
Chem.Eur.J. 2012 18 9955

-------
ENTROPY
-------

The entropy contributions are T*S = T*(S(el)+S(vib)+S(rot)+S(trans))
     S(el)   - electronic entropy
     S(vib)  - vibrational entropy
     S(rot)  - rotational entropy
     S(trans)- translational entropy
The entropies will be listed as multiplied by the temperature to get
units of energy

Electronic entropy                ...      0.00000000 Eh      0.00 kcal/mol
Vibrational entropy               ...      0.01323848 Eh      8.31 kcal/mol
Rotational entropy                ...      0.01306942 Eh      8.20 kcal/mol
Translational entropy             ...      0.01918948 Eh     12.04 kcal/mol
-----------------------------------------------------------------------
Final entropy term                ...      0.04549738 Eh     28.55 kcal/mol

In case the symmetry of your molecule has not been determined correctly
or in case you have a reason to use a different symmetry number we print
out the resulting rotational entropy values for sn=1,12 :
 --------------------------------------------------------
|  sn= 1 | S(rot)=       0.01372388 Eh      8.61 kcal/mol|
|  sn= 2 | S(rot)=       0.01306942 Eh      8.20 kcal/mol|
|  sn= 3 | S(rot)=       0.01268659 Eh      7.96 kcal/mol|
|  sn= 4 | S(rot)=       0.01241497 Eh      7.79 kcal/mol|
|  sn= 5 | S(rot)=       0.01220428 Eh      7.66 kcal/mol|
|  sn= 6 | S(rot)=       0.01203214 Eh      7.55 kcal/mol|
|  sn= 7 | S(rot)=       0.01188659 Eh      7.46 kcal/mol|
|  sn= 8 | S(rot)=       0.01176051 Eh      7.38 kcal/mol|

                             ****ORCA TERMINATED NORMALLY****
TOTAL RUN TIME: 0 days 0 hours 29 minutes 11 seconds 224 msec
