                         Program Version 5.0.4 -  RELEASE  -
|  1> # ORCA 5.0.4 - /users/bwb16179/postgrad/2024_06/pKa_Reviewer_Comments/Aq_Z=1/3_prot.inp # write input file
|  2> # Basic Mode
|  3> #
|  4> ! Opt Freq wB97X Def2-TZVP D4 SlowConv TightSCF Defgrid2 Def2/J RIJCOSX CPCM(Water)
|  5>
|  6> %PAL NPROCS 4 END
|  7>
|  8> %maxcore 4500
|  9>
| 10> %geom
| 11> Maxiter 150
| 12> END
| 13>
| 14> * xyzfile 1 1 3_prot.xyz
| 15>
| 16>                          ****END OF INPUT****
 Total Charge           Charge          ....    1
 Multiplicity           Mult            ....    1
 Number of Electrons    NEL             ....   84
Dispersion correction           -0.002508370
FINAL SINGLE POINT ENERGY     -1224.546755967754
Dispersion correction            ... Starting D4
Dispersion correction           -0.002512833
FINAL SINGLE POINT ENERGY     -1224.547402614900
Dispersion correction            ... Starting D4
Dispersion correction           -0.002513243
FINAL SINGLE POINT ENERGY     -1224.547408371655
Dispersion correction            ... Starting D4
                    ***********************HURRAY********************

CARTESIAN COORDINATES (ANGSTROEM)
---------------------------------
  N     -0.000001    1.081929    1.053541
  N      0.000000   -1.081930    1.053540
  C     -0.000002    0.677762   -0.261199
  C      0.000000   -0.677762   -0.261200
  C      0.000000   -0.000001    1.819022
  Cl    -0.000000    1.752668   -1.555327
  Cl     0.000005   -1.752663   -1.555330
  C     -0.000000    2.464259    1.521795
  C     -0.000000   -2.464260    1.521796
  H      0.000001    2.452770    2.608220
  H      0.000002   -2.452769    2.608221
  H     -0.892722    2.965141    1.153412
  H     -0.892723   -2.965141    1.153415
  H      0.892719   -2.965143    1.153411
  H      0.892720    2.965140    1.153409
  H      0.000001   -0.000001    2.898499

 Multiplicity           Mult            ....    1
 Number of Electrons    NEL             ....   84
 Basis Dimension        Dim             ....  333

ORBITAL ENERGIES
----------------

  NO   OCC          E(Eh)            E(eV)
   0   2.0000    -101.543408     -2763.1366
   1   2.0000    -101.543401     -2763.1364
   2   2.0000     -14.518339      -395.0641
   3   2.0000     -14.518312      -395.0634
   4   2.0000     -10.388370      -282.6819
   5   2.0000     -10.387648      -282.6623
   6   2.0000     -10.382411      -282.5198
   7   2.0000     -10.315136      -280.6891
   8   2.0000     -10.315131      -280.6890
   9   2.0000      -9.592543      -261.0264
  10   2.0000      -9.592533      -261.0261
  11   2.0000      -7.354319      -200.1212
  12   2.0000      -7.354315      -200.1211
  13   2.0000      -7.343878      -199.8371
  14   2.0000      -7.343876      -199.8370
  15   2.0000      -7.343745      -199.8335
  16   2.0000      -7.343742      -199.8334
  17   2.0000      -1.248636       -33.9771
  18   2.0000      -1.127192       -30.6724
  19   2.0000      -1.060747       -28.8644
  20   2.0000      -1.022315       -27.8186
  21   2.0000      -0.946121       -25.7453
  22   2.0000      -0.898099       -24.4385
  23   2.0000      -0.853265       -23.2185
  24   2.0000      -0.771540       -20.9947
  25   2.0000      -0.766398       -20.8547
  26   2.0000      -0.687297       -18.7023
  27   2.0000      -0.664549       -18.0833
  28   2.0000      -0.618465       -16.8293
  29   2.0000      -0.614182       -16.7127
  30   2.0000      -0.597944       -16.2709
  31   2.0000      -0.593359       -16.1461
  32   2.0000      -0.589537       -16.0421
  33   2.0000      -0.542341       -14.7578
  34   2.0000      -0.539987       -14.6938
  35   2.0000      -0.530547       -14.4369
  36   2.0000      -0.499668       -13.5967
  37   2.0000      -0.492052       -13.3894
  38   2.0000      -0.463999       -12.6260
  39   2.0000      -0.463613       -12.6156
  40   2.0000      -0.421533       -11.4705
  41   2.0000      -0.359837        -9.7917
  42   0.0000       0.047794         1.3006
  43   0.0000       0.068570         1.8659
  44   0.0000       0.088483         2.4077
  45   0.0000       0.121077         3.2947
  46   0.0000       0.124930         3.3995

MULLIKEN ATOMIC CHARGES
-----------------------
   0 N :   -0.049640
   1 N :   -0.049641
   2 C :    0.056782
   3 C :    0.056727
   4 C :    0.135316
   5 Cl:    0.039355
   6 Cl:    0.039350
   7 C :   -0.320861
   8 C :   -0.320819
   9 H :    0.184656
  10 H :    0.184655
  11 H :    0.190958
  12 H :    0.190954
  13 H :    0.190953
  14 H :    0.190958
  15 H :    0.280296
Sum of atomic charges:    1.0000000

LOEWDIN ATOMIC CHARGES
----------------------
   0 N :    0.269675
   1 N :    0.269674
   2 C :   -0.525472
   3 C :   -0.525472
   4 C :   -0.108491
   5 Cl:    0.516183
   6 Cl:    0.516183
   7 C :   -0.219326
   8 C :   -0.219325
   9 H :    0.144936
  10 H :    0.144937
  11 H :    0.139040
  12 H :    0.139040
  13 H :    0.139039
  14 H :    0.139039
  15 H :    0.180340

  Mayer bond orders larger than 0.100000
B(  0-N ,  2-C ) :   1.1517 B(  0-N ,  4-C ) :   1.3891 B(  0-N ,  7-C ) :   0.8592
B(  1-N ,  3-C ) :   1.1517 B(  1-N ,  4-C ) :   1.3891 B(  1-N ,  8-C ) :   0.8593
B(  2-C ,  3-C ) :   1.5856 B(  2-C ,  5-Cl) :   1.2674 B(  3-C ,  6-Cl) :   1.2674
B(  4-C , 15-H ) :   0.8860 B(  7-C ,  9-H ) :   0.9514 B(  7-C , 11-H ) :   0.9536
B(  7-C , 14-H ) :   0.9536 B(  8-C , 10-H ) :   0.9514 B(  8-C , 12-H ) :   0.9536
B(  8-C , 13-H ) :   0.9536

Dispersion correction           -0.002513269
FINAL SINGLE POINT ENERGY     -1224.547407484701

DIPOLE MOMENT
-------------
                                X             Y             Z
Electronic contribution:      0.00001       0.00001     -13.26716
Nuclear contribution   :     -0.00001      -0.00001      16.49914
                        -----------------------------------------
Total Dipole Moment    :     -0.00000      -0.00000       3.23197
                        -----------------------------------------
Magnitude (a.u.)       :      3.23197
Magnitude (Debye)      :      8.21502

Dispersion correction in the Hessian             ... Starting D4

VIBRATIONAL FREQUENCIES
-----------------------

Scaling factor for frequencies =  1.000000000  (already applied!)

   0:         0.00 cm**-1
   1:         0.00 cm**-1
   2:         0.00 cm**-1
   3:         0.00 cm**-1
   4:         0.00 cm**-1
   5:         0.00 cm**-1
   6:        95.65 cm**-1
   7:        97.69 cm**-1
   8:       113.77 cm**-1
   9:       163.97 cm**-1
  10:       174.98 cm**-1
  11:       234.14 cm**-1
  12:       268.13 cm**-1
  13:       282.73 cm**-1
  14:       317.12 cm**-1
  15:       444.88 cm**-1
  16:       544.81 cm**-1
  17:       553.42 cm**-1
  18:       638.50 cm**-1
  19:       643.71 cm**-1
  20:       708.41 cm**-1
  21:       862.60 cm**-1
  22:       878.55 cm**-1
  23:      1113.11 cm**-1
  24:      1115.27 cm**-1
  25:      1130.99 cm**-1
  26:      1152.70 cm**-1
  27:      1158.27 cm**-1
  28:      1198.57 cm**-1
  29:      1239.82 cm**-1
  30:      1396.86 cm**-1
  31:      1433.09 cm**-1
  32:      1451.87 cm**-1
  33:      1453.86 cm**-1
  34:      1466.58 cm**-1
  35:      1467.26 cm**-1
  36:      1481.85 cm**-1
  37:      1501.83 cm**-1
  38:      1522.25 cm**-1
  39:      1638.28 cm**-1
  40:      1661.90 cm**-1
  41:      3105.72 cm**-1
  42:      3105.82 cm**-1
  43:      3200.88 cm**-1
  44:      3200.92 cm**-1
  45:      3213.19 cm**-1
  46:      3213.22 cm**-1
  47:      3296.75 cm**-1

IR SPECTRUM
-----------

 Mode   freq       eps      Int      T**2         TX        TY        TZ
       cm**-1   L/(mol*cm) km/mol    a.u.
----------------------------------------------------------------------------
  6:     95.65   0.000000    0.00  0.000000  ( 0.000006 -0.000000 -0.000000)
  7:     97.69   0.000128    0.65  0.000410  ( 0.020242  0.000000 -0.000000)
  8:    113.77   0.000000    0.00  0.000000  (-0.000002 -0.000000 -0.000000)
  9:    163.97   0.001076    5.44  0.002049  (-0.045263  0.000000 -0.000000)
 10:    174.98   0.000313    1.58  0.000558  (-0.000000  0.000000  0.023626)
 11:    234.14   0.000031    0.16  0.000042  (-0.000000  0.006463 -0.000000)
 12:    268.13   0.000750    3.79  0.000873  (-0.000000  0.000000  0.029541)
 13:    282.73   0.000307    1.55  0.000338  ( 0.018394  0.000000  0.000000)
 14:    317.12   0.000000    0.00  0.000000  ( 0.000000  0.000001  0.000000)
 15:    444.88   0.002430   12.28  0.001705  (-0.000000 -0.041286 -0.000000)
 16:    544.81   0.003091   15.62  0.001771  ( 0.000000  0.000000  0.042079)
 17:    553.42   0.000001    0.01  0.000001  ( 0.000000 -0.000915 -0.000001)
 18:    638.50   0.004531   22.90  0.002214  (-0.047058 -0.000000  0.000000)
 19:    643.71   0.000046    0.23  0.000022  (-0.000000 -0.000000 -0.004702)
 20:    708.41   0.000000    0.00  0.000000  ( 0.000000  0.000001 -0.000000)
 21:    862.60   0.000004    0.02  0.000002  (-0.000001 -0.001269  0.000000)
 22:    878.55   0.003816   19.29  0.001356  ( 0.036818 -0.000000  0.000000)
 23:   1113.11   0.002418   12.22  0.000678  (-0.000000  0.026037  0.000002)
 24:   1115.27   0.000504    2.55  0.000141  (-0.000000 -0.000003  0.011872)
 25:   1130.99   0.004189   21.17  0.001156  (-0.000000 -0.000000  0.033998)
 26:   1152.70   0.000000    0.00  0.000000  ( 0.000000  0.000000  0.000000)
 27:   1158.27   0.000189    0.95  0.000051  ( 0.007127  0.000000  0.000000)
 28:   1198.57   0.031894  161.18  0.008304  (-0.000000  0.091127  0.000000)
 29:   1239.82   0.002827   14.29  0.000712  (-0.000000 -0.026676 -0.000000)
 30:   1396.86   0.003210   16.22  0.000717  (-0.000000  0.000000 -0.026779)
 31:   1433.09   0.000545    2.75  0.000119  (-0.000000  0.010889 -0.000000)
 32:   1451.87   0.005631   28.46  0.001210  ( 0.000000 -0.034790 -0.000001)
 33:   1453.86   0.004782   24.17  0.001027  (-0.000000 -0.000000 -0.032039)
 34:   1466.58   0.000000    0.00  0.000000  ( 0.000037  0.000000  0.000000)
 35:   1467.26   0.010184   51.47  0.002166  ( 0.046540  0.000000 -0.000000)
 36:   1481.85   0.011350   57.36  0.002390  ( 0.000000 -0.000000  0.048890)
 37:   1501.83   0.001292    6.53  0.000268  (-0.000000  0.016386  0.000000)
 38:   1522.25   0.000252    1.27  0.000052  ( 0.000000  0.000000  0.007184)
 39:   1638.28   0.028978  146.44  0.005520  ( 0.000000  0.074295  0.000000)
 40:   1661.90   0.021659  109.45  0.004067  (-0.000000 -0.000000  0.063773)
 41:   3105.72   0.002262   11.43  0.000227  ( 0.000000  0.015078 -0.000018)
 42:   3105.82   0.000306    1.55  0.000031  (-0.000000  0.000049  0.005546)
 43:   3200.88   0.000000    0.00  0.000000  (-0.000010  0.000000 -0.000000)
 44:   3200.92   0.000193    0.98  0.000019  ( 0.004337 -0.000000  0.000000)
 45:   3213.19   0.000037    0.19  0.000004  (-0.000000  0.000048  0.001905)
 46:   3213.22   0.000029    0.15  0.000003  (-0.000000  0.001681 -0.000054)
 47:   3296.75   0.014898   75.29  0.001410  ( 0.000000  0.000000  0.037553)

--------------------------
THERMOCHEMISTRY AT 298.15K
--------------------------

Temperature         ... 298.15 K
Pressure            ... 1.00 atm
Total Mass          ... 166.03 AMU

Throughout the following assumptions are being made:
  (1) The electronic state is orbitally nondegenerate
  (2) There are no thermally accessible electronically excited states
  (3) Hindered rotations indicated by low frequency modes are not
      treated as such but are treated as vibrations and this may
      cause some error
  (4) All equations used are the standard statistical mechanics
      equations for an ideal gas
  (5) All vibrations are strictly harmonic

freq.      95.65  E(vib)   ...       0.47
freq.      97.69  E(vib)   ...       0.46
freq.     113.77  E(vib)   ...       0.44
freq.     163.97  E(vib)   ...       0.39
freq.     174.98  E(vib)   ...       0.38
freq.     234.14  E(vib)   ...       0.32
freq.     268.13  E(vib)   ...       0.29
freq.     282.73  E(vib)   ...       0.28
freq.     317.12  E(vib)   ...       0.25
freq.     444.88  E(vib)   ...       0.17
freq.     544.81  E(vib)   ...       0.12
freq.     553.42  E(vib)   ...       0.12
freq.     638.50  E(vib)   ...       0.09
freq.     643.71  E(vib)   ...       0.09
freq.     708.41  E(vib)   ...       0.07
freq.     862.60  E(vib)   ...       0.04
freq.     878.55  E(vib)   ...       0.04
freq.    1113.11  E(vib)   ...       0.01
freq.    1115.27  E(vib)   ...       0.01
freq.    1130.99  E(vib)   ...       0.01
freq.    1152.70  E(vib)   ...       0.01
freq.    1158.27  E(vib)   ...       0.01
freq.    1198.57  E(vib)   ...       0.01
freq.    1239.82  E(vib)   ...       0.01
freq.    1396.86  E(vib)   ...       0.00
freq.    1433.09  E(vib)   ...       0.00
freq.    1451.87  E(vib)   ...       0.00
freq.    1453.86  E(vib)   ...       0.00
freq.    1466.58  E(vib)   ...       0.00
freq.    1467.26  E(vib)   ...       0.00
freq.    1481.85  E(vib)   ...       0.00
freq.    1501.83  E(vib)   ...       0.00
freq.    1522.25  E(vib)   ...       0.00
freq.    1638.28  E(vib)   ...       0.00
freq.    1661.90  E(vib)   ...       0.00
freq.    3105.72  E(vib)   ...       0.00
freq.    3105.82  E(vib)   ...       0.00
freq.    3200.88  E(vib)   ...       0.00
freq.    3200.92  E(vib)   ...       0.00
freq.    3213.19  E(vib)   ...       0.00
freq.    3213.22  E(vib)   ...       0.00
freq.    3296.75  E(vib)   ...       0.00

------------
INNER ENERGY
------------

The inner energy is: U= E(el) + E(ZPE) + E(vib) + E(rot) + E(trans)
    E(el)   - is the total energy from the electronic structure calculation
              = E(kin-el) + E(nuc-el) + E(el-el) + E(nuc-nuc)
    E(ZPE)  - the the zero temperature vibrational energy from the frequency calculation
    E(vib)  - the the finite temperature correction to E(ZPE) due to population
              of excited vibrational states
    E(rot)  - is the rotational thermal energy
    E(trans)- is the translational thermal energy

Summary of contributions to the inner energy U:
Electronic energy                ...  -1224.54740748 Eh
Zero point energy                ...      0.12289333 Eh      77.12 kcal/mol
Thermal vibrational correction   ...      0.00657708 Eh       4.13 kcal/mol
Thermal rotational correction    ...      0.00141627 Eh       0.89 kcal/mol
Thermal translational correction ...      0.00141627 Eh       0.89 kcal/mol
-----------------------------------------------------------------------
Total thermal energy                  -1224.41510454 Eh

Summary of corrections to the electronic energy:
(perhaps to be used in another calculation)
Total thermal correction                  0.00940962 Eh       5.90 kcal/mol
Non-thermal (ZPE) correction              0.12289333 Eh      77.12 kcal/mol
-----------------------------------------------------------------------
Total correction                          0.13230295 Eh      83.02 kcal/mol

--------
ENTHALPY
--------

The enthalpy is H = U + kB*T
                kB is Boltzmann's constant
Total free energy                 ...  -1224.41510454 Eh
Thermal Enthalpy correction       ...      0.00094421 Eh       0.59 kcal/mol
-----------------------------------------------------------------------
Total Enthalpy                    ...  -1224.41416033 Eh

Note: Rotational entropy computed according to Herzberg
Infrared and Raman Spectra, Chapter V,1, Van Nostrand Reinhold, 1945
Point Group:  C2v, Symmetry Number:   2
Rotational constants in cm-1:     0.051257     0.036783     0.021591

Vibrational entropy computed according to the QRRHO of S. Grimme
Chem.Eur.J. 2012 18 9955

-------
ENTROPY
-------

The entropy contributions are T*S = T*(S(el)+S(vib)+S(rot)+S(trans))
     S(el)   - electronic entropy
     S(vib)  - vibrational entropy
     S(rot)  - rotational entropy
     S(trans)- translational entropy
The entropies will be listed as multiplied by the temperature to get
units of energy

Electronic entropy                ...      0.00000000 Eh      0.00 kcal/mol
Vibrational entropy               ...      0.01156489 Eh      7.26 kcal/mol
Rotational entropy                ...      0.01362877 Eh      8.55 kcal/mol
Translational entropy             ...      0.01958930 Eh     12.29 kcal/mol
-----------------------------------------------------------------------
Final entropy term                ...      0.04478296 Eh     28.10 kcal/mol

In case the symmetry of your molecule has not been determined correctly
or in case you have a reason to use a different symmetry number we print
out the resulting rotational entropy values for sn=1,12 :
 --------------------------------------------------------
|  sn= 1 | S(rot)=       0.01428323 Eh      8.96 kcal/mol|
|  sn= 2 | S(rot)=       0.01362877 Eh      8.55 kcal/mol|
|  sn= 3 | S(rot)=       0.01324594 Eh      8.31 kcal/mol|
|  sn= 4 | S(rot)=       0.01297431 Eh      8.14 kcal/mol|
|  sn= 5 | S(rot)=       0.01276363 Eh      8.01 kcal/mol|
|  sn= 6 | S(rot)=       0.01259148 Eh      7.90 kcal/mol|
|  sn= 7 | S(rot)=       0.01244594 Eh      7.81 kcal/mol|
|  sn= 8 | S(rot)=       0.01231986 Eh      7.73 kcal/mol|
|  sn= 9 | S(rot)=       0.01220865 Eh      7.66 kcal/mol|
|  sn=10 | S(rot)=       0.01210917 Eh      7.60 kcal/mol|
|  sn=11 | S(rot)=       0.01201918 Eh      7.54 kcal/mol|
|  sn=12 | S(rot)=       0.01193703 Eh      7.49 kcal/mol|
 --------------------------------------------------------

-------------------
GIBBS FREE ENERGY
-------------------

The Gibbs free energy is G = H - T*S

Total enthalpy                    ...  -1224.41416033 Eh
Total entropy correction          ...     -0.04478296 Eh    -28.10 kcal/mol
-----------------------------------------------------------------------
Final Gibbs free energy         ...  -1224.45894328 Eh

                             ****ORCA TERMINATED NORMALLY****
TOTAL RUN TIME: 0 days 0 hours 21 minutes 10 seconds 854 msec
