                         Program Version 5.0.4 -  RELEASE  -
|  1> # ORCA 5.0.4 - /users/bwb16179/postgrad/2024_06/pKa_Reviewer_Comments/Aq_Z=1/4_prot.inp # write input file
|  2> # Basic Mode
|  3> #
|  4> ! Opt Freq wB97X Def2-TZVP D4 SlowConv TightSCF Defgrid2 Def2/J RIJCOSX CPCM(Water)
|  5>
|  6> %PAL NPROCS 4 END
|  7>
|  8> %maxcore 4500
|  9>
| 10> %geom
| 11> Maxiter 150
| 12> END
| 13>
| 14> * xyzfile 1 1 4_prot.xyz
| 15>
| 16>                          ****END OF INPUT****
 Total Charge           Charge          ....    1
 Multiplicity           Mult            ....    1
 Number of Electrons    NEL             ....   84
Dispersion correction           -0.003981711
FINAL SINGLE POINT ENERGY      -462.627208629855
Dispersion correction            ... Starting D4
Dispersion correction           -0.003991814
FINAL SINGLE POINT ENERGY      -462.628421189410
Dispersion correction            ... Starting D4
Dispersion correction           -0.003992115
FINAL SINGLE POINT ENERGY      -462.628429708382
Dispersion correction            ... Starting D4
                    ***********************HURRAY********************

CARTESIAN COORDINATES (ANGSTROEM)
---------------------------------
  C      1.244603   -0.195054   -0.583174
  C      0.268247   -1.111082   -0.777068
  N      0.696406    0.828293    0.153769
  N     -0.861165   -0.634158   -0.154185
  C     -0.572930    0.535743    0.397114
  H      2.272541   -0.186633   -0.905104
  H      0.282317   -2.052216   -1.300854
  C      1.389663    2.056324    0.592152
  C     -2.179468   -1.297325   -0.107497
  H      0.649449    2.601155    1.180201
  H     -2.802964   -0.635669    0.495448
  H     -1.259608    1.151097    0.957420
  C      1.786521    2.883690   -0.619223
  C     -2.755485   -1.400918   -1.509743
  C     -2.056263   -2.646067    0.581090
  C      2.572882    1.695511    1.473216
  H      2.520196    2.351759   -1.228796
  H     -2.141005   -2.051694   -2.135640
  H     -1.431853   -3.325872   -0.002428
  H      3.330208    1.150703    0.905790
  H      0.917710    3.118375   -1.235321
  H     -2.821744   -0.418936   -1.979455
  H     -1.627528   -2.539835    1.578207
  H      2.259310    1.086014    2.321432
  H      2.236565    3.817608   -0.281780
  H     -3.756507   -1.829051   -1.454152
  H     -3.047000   -3.091528    0.673289
  H      3.026673    2.611506    1.852073

 Multiplicity           Mult            ....    1
 Number of Electrons    NEL             ....   84
 Basis Dimension        Dim             ....  443

ORBITAL ENERGIES
----------------

  NO   OCC          E(Eh)            E(eV)
   0   2.0000     -14.493621      -394.3915
   1   2.0000     -14.493593      -394.3907
   2   2.0000     -10.363477      -282.0045
   3   2.0000     -10.321972      -280.8751
   4   2.0000     -10.321870      -280.8724
   5   2.0000     -10.315632      -280.7026
   6   2.0000     -10.314895      -280.6826
   7   2.0000     -10.253175      -279.0031
   8   2.0000     -10.253141      -279.0022
   9   2.0000     -10.253126      -279.0017
  10   2.0000     -10.253006      -278.9985
  11   2.0000      -1.221562       -33.2404
  12   2.0000      -1.101762       -29.9805
  13   2.0000      -0.970376       -26.4053
  14   2.0000      -0.926875       -25.2215
  15   2.0000      -0.920206       -25.0401
  16   2.0000      -0.830068       -22.5873
  17   2.0000      -0.829529       -22.5726
  18   2.0000      -0.797652       -21.7052
  19   2.0000      -0.792721       -21.5710
  20   2.0000      -0.738627       -20.0990
  21   2.0000      -0.712929       -19.3998
  22   2.0000      -0.669583       -18.2203
  23   2.0000      -0.626639       -17.0517
  24   2.0000      -0.618742       -16.8368
  25   2.0000      -0.585733       -15.9386
  26   2.0000      -0.584448       -15.9036
  27   2.0000      -0.573790       -15.6136
  28   2.0000      -0.562784       -15.3141
  29   2.0000      -0.556776       -15.1507
  30   2.0000      -0.555795       -15.1240
  31   2.0000      -0.519116       -14.1259
  32   2.0000      -0.505331       -13.7508
  33   2.0000      -0.502914       -13.6850
  34   2.0000      -0.498693       -13.5701
  35   2.0000      -0.488774       -13.3002
  36   2.0000      -0.472635       -12.8610
  37   2.0000      -0.462594       -12.5878
  38   2.0000      -0.461327       -12.5534
  39   2.0000      -0.455864       -12.4047
  40   2.0000      -0.410523       -11.1709
  41   2.0000      -0.374312       -10.1856
  42   0.0000       0.061626         1.6769
  43   0.0000       0.090004         2.4491
  44   0.0000       0.115497         3.1428
  45   0.0000       0.125512         3.4154
  46   0.0000       0.145688         3.9644

MULLIKEN ATOMIC CHARGES
-----------------------
   0 C :   -0.130894
   1 C :   -0.130030
   2 N :   -0.025372
   3 N :   -0.026685
   4 C :    0.118686
   5 H :    0.247516
   6 H :    0.247410
   7 C :   -0.037052
   8 C :   -0.034769
   9 H :    0.143742
  10 H :    0.143119
  11 H :    0.265519
  12 C :   -0.386181
  13 C :   -0.386760
  14 C :   -0.388357
  15 C :   -0.388063
  16 H :    0.142453
  17 H :    0.142420
  18 H :    0.142336
  19 H :    0.142215
  20 H :    0.146954
  21 H :    0.147073
  22 H :    0.147408
  23 H :    0.147852
  24 H :    0.152025
  25 H :    0.151977
  26 H :    0.152656
  27 H :    0.152803
Sum of atomic charges:    1.0000000

LOEWDIN ATOMIC CHARGES
----------------------
   0 C :   -0.149521
   1 C :   -0.149190
   2 N :    0.303146
   3 N :    0.303202
   4 C :   -0.126216
   5 H :    0.165101
   6 H :    0.165113
   7 C :   -0.272238
   8 C :   -0.272094
   9 H :    0.167391
  10 H :    0.167325
  11 H :    0.174808
  12 C :   -0.266341
  13 C :   -0.266342
  14 C :   -0.266475
  15 C :   -0.266597
  16 H :    0.130347
  17 H :    0.130361
  18 H :    0.130305
  19 H :    0.130266
  20 H :    0.130353
  21 H :    0.130385
  22 H :    0.130527
  23 H :    0.130673
  24 H :    0.136317
  25 H :    0.136279
  26 H :    0.136471
  27 H :    0.136644

  Mayer bond orders larger than 0.100000
B(  0-C ,  1-C ) :   1.7261 B(  0-C ,  2-N ) :   1.1378 B(  0-C ,  5-H ) :   0.9190
B(  1-C ,  3-N ) :   1.1377 B(  1-C ,  6-H ) :   0.9192 B(  2-N ,  4-C ) :   1.3881
B(  2-N ,  7-C ) :   0.8487 B(  3-N ,  4-C ) :   1.3883 B(  3-N ,  8-C ) :   0.8488
B(  4-C , 11-H ) :   0.8981 B(  7-C ,  9-H ) :   0.9626 B(  7-C , 12-C ) :   0.9754
B(  7-C , 15-C ) :   0.9738 B(  8-C , 10-H ) :   0.9626 B(  8-C , 13-C ) :   0.9749
B(  8-C , 14-C ) :   0.9739 B( 12-C , 16-H ) :   0.9594 B( 12-C , 20-H ) :   0.9743
B( 12-C , 24-H ) :   0.9730 B( 13-C , 17-H ) :   0.9597 B( 13-C , 21-H ) :   0.9743
B( 13-C , 25-H ) :   0.9730 B( 14-C , 18-H ) :   0.9598 B( 14-C , 22-H ) :   0.9751
B( 14-C , 26-H ) :   0.9723 B( 15-C , 19-H ) :   0.9594 B( 15-C , 23-H ) :   0.9753
B( 15-C , 27-H ) :   0.9722

Dispersion correction           -0.003992019
FINAL SINGLE POINT ENERGY      -462.628431622484

DIPOLE MOMENT
-------------
                                X             Y             Z
Electronic contribution:      0.24564      -0.26651       0.03388
Nuclear contribution   :     -0.54336       0.53014       0.22619
                        -----------------------------------------
Total Dipole Moment    :     -0.29772       0.26363       0.26007
                        -----------------------------------------
Magnitude (a.u.)       :      0.47516
Magnitude (Debye)      :      1.20776

Dispersion correction in the Hessian             ... Starting D4

VIBRATIONAL FREQUENCIES
-----------------------

Scaling factor for frequencies =  1.000000000  (already applied!)

   0:         0.00 cm**-1
   1:         0.00 cm**-1
   2:         0.00 cm**-1
   3:         0.00 cm**-1
   4:         0.00 cm**-1
   5:         0.00 cm**-1
   6:        39.51 cm**-1
   7:        50.66 cm**-1
   8:       119.63 cm**-1
   9:       151.15 cm**-1
  10:       156.87 cm**-1
  11:       227.31 cm**-1
  12:       245.91 cm**-1
  13:       262.11 cm**-1
  14:       273.78 cm**-1
  15:       284.87 cm**-1
  16:       301.53 cm**-1
  17:       358.66 cm**-1
  18:       399.15 cm**-1
  19:       443.60 cm**-1
  20:       455.04 cm**-1
  21:       553.82 cm**-1
  22:       628.99 cm**-1
  23:       672.80 cm**-1
  24:       677.64 cm**-1
  25:       686.55 cm**-1
  26:       776.05 cm**-1
  27:       900.64 cm**-1
  28:       909.96 cm**-1
  29:       915.56 cm**-1
  30:       920.22 cm**-1
  31:       949.93 cm**-1
  32:       954.65 cm**-1
  33:       971.81 cm**-1
  34:       972.30 cm**-1
  35:      1040.42 cm**-1
  36:      1048.67 cm**-1
  37:      1101.22 cm**-1
  38:      1114.84 cm**-1
  39:      1135.15 cm**-1
  40:      1170.81 cm**-1
  41:      1173.86 cm**-1
  42:      1182.34 cm**-1
  43:      1206.44 cm**-1
  44:      1223.21 cm**-1
  45:      1287.27 cm**-1
  46:      1346.08 cm**-1
  47:      1358.46 cm**-1
  48:      1362.35 cm**-1
  49:      1375.71 cm**-1
  50:      1405.44 cm**-1
  51:      1415.30 cm**-1
  52:      1415.82 cm**-1
  53:      1426.19 cm**-1
  54:      1429.11 cm**-1
  55:      1474.19 cm**-1
  56:      1474.35 cm**-1
  57:      1476.96 cm**-1
  58:      1479.07 cm**-1
  59:      1479.76 cm**-1
  60:      1485.46 cm**-1
  61:      1491.02 cm**-1
  62:      1492.11 cm**-1
  63:      1502.37 cm**-1
  64:      1508.43 cm**-1
  65:      1629.40 cm**-1
  66:      1636.92 cm**-1
  67:      3072.11 cm**-1
  68:      3072.60 cm**-1
  69:      3074.89 cm**-1
  70:      3075.33 cm**-1
  71:      3121.49 cm**-1
  72:      3122.19 cm**-1
  73:      3153.13 cm**-1
  74:      3153.50 cm**-1
  75:      3158.93 cm**-1
  76:      3159.38 cm**-1
  77:      3165.19 cm**-1
  78:      3165.60 cm**-1
  79:      3167.54 cm**-1
  80:      3168.01 cm**-1
  81:      3299.32 cm**-1
  82:      3302.86 cm**-1
  83:      3320.16 cm**-1

IR SPECTRUM
-----------

 Mode   freq       eps      Int      T**2         TX        TY        TZ
       cm**-1   L/(mol*cm) km/mol    a.u.
----------------------------------------------------------------------------
  6:     39.51   0.000011    0.06  0.000090  (-0.002798  0.004250 -0.007979)
  7:     50.66   0.000002    0.01  0.000010  ( 0.001181 -0.002217  0.002036)
  8:    119.63   0.000066    0.33  0.000172  (-0.004783  0.006366 -0.010420)
  9:    151.15   0.000001    0.00  0.000002  (-0.001041  0.000529 -0.000470)
 10:    156.87   0.000058    0.29  0.000115  (-0.005974  0.006707  0.005898)
 11:    227.31   0.000006    0.03  0.000008  ( 0.002653 -0.000012  0.000732)
 12:    245.91   0.000009    0.04  0.000011  (-0.001187 -0.003138  0.000210)
 13:    262.11   0.000036    0.18  0.000043  ( 0.006009  0.000211 -0.002560)
 14:    273.78   0.000008    0.04  0.000009  ( 0.002789  0.000722 -0.000712)
 15:    284.87   0.000021    0.11  0.000023  ( 0.001418 -0.003093 -0.003379)
 16:    301.53   0.000141    0.71  0.000146  (-0.008313 -0.008559 -0.001949)
 17:    358.66   0.000021    0.11  0.000018  ( 0.002939  0.003115  0.000076)
 18:    399.15   0.000149    0.75  0.000117  (-0.003366  0.005128 -0.008891)
 19:    443.60   0.000002    0.01  0.000002  ( 0.000337  0.000457  0.001138)
 20:    455.04   0.000143    0.72  0.000098  ( 0.006264 -0.005370 -0.005469)
 21:    553.82   0.000114    0.58  0.000064  (-0.005345 -0.005807 -0.001392)
 22:    628.99   0.000007    0.03  0.000003  ( 0.000563  0.000295 -0.001736)
 23:    672.80   0.001560    7.88  0.000723  (-0.018508 -0.019334 -0.002662)
 24:    677.64   0.013641   68.93  0.006282  ( 0.022160 -0.035965  0.067061)
 25:    686.55   0.000048    0.24  0.000022  (-0.001948  0.001653 -0.003922)
 26:    776.05   0.011546   58.35  0.004643  (-0.018018  0.031094 -0.057892)
 27:    900.64   0.007726   39.05  0.002677  (-0.014147  0.023822 -0.043698)
 28:    909.96   0.000761    3.85  0.000261  (-0.012436 -0.009393 -0.004249)
 29:    915.56   0.000691    3.49  0.000236  ( 0.008793 -0.009050 -0.008741)
 30:    920.22   0.000081    0.41  0.000028  (-0.000436  0.002590 -0.004544)
 31:    949.93   0.000434    2.20  0.000143  (-0.003363  0.005752 -0.009915)
 32:    954.65   0.000440    2.23  0.000144  (-0.002829  0.005860 -0.010079)
 33:    971.81   0.000034    0.17  0.000011  (-0.000141  0.002068 -0.002548)
 34:    972.30   0.000090    0.45  0.000029  ( 0.001953 -0.002776  0.004160)
 35:   1040.42   0.002493   12.60  0.000748  ( 0.019936  0.018465  0.003077)
 36:   1048.67   0.000138    0.70  0.000041  ( 0.003266 -0.004087 -0.003707)
 37:   1101.22   0.000068    0.34  0.000019  (-0.002376 -0.003507 -0.001122)
 38:   1114.84   0.002461   12.44  0.000689  ( 0.016767 -0.014836 -0.013701)
 39:   1135.15   0.002899   14.65  0.000797  ( 0.019936 -0.014859 -0.013373)
 40:   1170.81   0.000840    4.25  0.000224  (-0.004158  0.006779 -0.012680)
 41:   1173.86   0.003793   19.17  0.001008  (-0.007720  0.015010 -0.026897)
 42:   1182.34   0.025497  128.85  0.006730  (-0.058454 -0.056249 -0.012198)
 43:   1206.44   0.000125    0.63  0.000032  (-0.005157  0.000082  0.002393)
 44:   1223.21   0.028686  144.97  0.007318  (-0.061098 -0.058581 -0.012394)
 45:   1287.27   0.007435   37.57  0.001802  ( 0.030118  0.029254  0.006290)
 46:   1346.08   0.001627    8.22  0.000377  (-0.013510  0.010418  0.009283)
 47:   1358.46   0.000157    0.79  0.000036  ( 0.003667 -0.001725  0.004419)
 48:   1362.35   0.000257    1.30  0.000059  ( 0.000490 -0.006109  0.004616)
 49:   1375.71   0.005884   29.74  0.001335  (-0.026409 -0.024642 -0.005487)
 50:   1405.44   0.000881    4.45  0.000196  ( 0.009385 -0.008456 -0.006000)
 51:   1415.30   0.002681   13.55  0.000591  (-0.008706  0.011014 -0.019849)
 52:   1415.82   0.004956   25.05  0.001092  (-0.010027  0.012459 -0.028924)
 53:   1426.19   0.002348   11.87  0.000514  ( 0.019365  0.009983 -0.006252)
 54:   1429.11   0.001757    8.88  0.000384  ( 0.004859 -0.017352 -0.007684)
 55:   1474.19   0.000348    1.76  0.000074  (-0.007923 -0.003105  0.001080)
 56:   1474.35   0.001011    5.11  0.000214  (-0.013437 -0.005645 -0.001208)
 57:   1476.96   0.004912   24.82  0.001038  ( 0.027639  0.016525  0.000921)
 58:   1479.07   0.002544   12.86  0.000537  ( 0.001928  0.023089 -0.000128)
 59:   1479.76   0.001206    6.09  0.000254  ( 0.001441 -0.006483 -0.014497)
 60:   1485.46   0.000973    4.92  0.000204  (-0.011481  0.001673 -0.008353)
 61:   1491.02   0.004928   24.91  0.001031  (-0.013699  0.023205  0.017473)
 62:   1492.11   0.004533   22.91  0.000948  ( 0.019968 -0.013420 -0.019215)
 63:   1502.37   0.000252    1.27  0.000052  (-0.006580  0.000254  0.002997)
 64:   1508.43   0.000437    2.21  0.000090  ( 0.007186 -0.004561 -0.004231)
 65:   1629.40   0.035664  180.23  0.006830  (-0.059952 -0.055710 -0.011510)
 66:   1636.92   0.001972    9.96  0.000376  (-0.013231  0.010039  0.010000)
 67:   3072.11   0.003391   17.13  0.000344  (-0.000140  0.008716 -0.016384)
 68:   3072.60   0.003772   19.06  0.000383  ( 0.005466 -0.008138  0.016940)
 69:   3074.89   0.001843    9.31  0.000187  (-0.001747 -0.012647 -0.004900)
 70:   3075.33   0.002228   11.26  0.000226  ( 0.014303 -0.003951  0.002421)
 71:   3121.49   0.000244    1.23  0.000024  (-0.003165  0.002420  0.002911)
 72:   3122.19   0.000330    1.67  0.000033  ( 0.003423 -0.003215 -0.003305)
 73:   3153.13   0.001850    9.35  0.000183  ( 0.004513 -0.007447  0.010358)
 74:   3153.50   0.001956    9.89  0.000194  (-0.007820  0.008818 -0.007396)
 75:   3158.93   0.007426   37.53  0.000734  ( 0.014853 -0.016937 -0.015039)
 76:   3159.38   0.009648   48.76  0.000953  ( 0.020811 -0.013733 -0.018200)
 77:   3165.19   0.002121   10.72  0.000209  (-0.005004  0.004237 -0.012889)
 78:   3165.60   0.002039   10.30  0.000201  ( 0.005025 -0.005902  0.011871)
 79:   3167.54   0.007278   36.78  0.000717  (-0.012546 -0.022712 -0.006613)
 80:   3168.01   0.006162   31.14  0.000607  (-0.021959 -0.011063  0.001544)
 81:   3299.32   0.009254   46.77  0.000875  (-0.019166  0.016451  0.015404)
 82:   3302.86   0.004399   22.23  0.000416  ( 0.014854  0.013680  0.002810)
 83:   3320.16   0.002507   12.67  0.000236  (-0.008940  0.009510  0.008081)

--------------------------
THERMOCHEMISTRY AT 298.15K
--------------------------

Temperature         ... 298.15 K
Pressure            ... 1.00 atm
Total Mass          ... 153.25 AMU

Throughout the following assumptions are being made:
  (1) The electronic state is orbitally nondegenerate
  (2) There are no thermally accessible electronically excited states
  (3) Hindered rotations indicated by low frequency modes are not
      treated as such but are treated as vibrations and this may
      cause some error
  (4) All equations used are the standard statistical mechanics
      equations for an ideal gas
  (5) All vibrations are strictly harmonic

freq.      39.51  E(vib)   ...       0.54
freq.      50.66  E(vib)   ...       0.52
freq.     119.63  E(vib)   ...       0.44
freq.     151.15  E(vib)   ...       0.40
freq.     156.87  E(vib)   ...       0.40
freq.     227.31  E(vib)   ...       0.33
freq.     245.91  E(vib)   ...       0.31
freq.     262.11  E(vib)   ...       0.29
freq.     273.78  E(vib)   ...       0.28
freq.     284.87  E(vib)   ...       0.28
freq.     301.53  E(vib)   ...       0.26
freq.     358.66  E(vib)   ...       0.22
freq.     399.15  E(vib)   ...       0.19
freq.     443.60  E(vib)   ...       0.17
freq.     455.04  E(vib)   ...       0.16
freq.     553.82  E(vib)   ...       0.12
freq.     628.99  E(vib)   ...       0.09
freq.     672.80  E(vib)   ...       0.08
freq.     677.64  E(vib)   ...       0.08
freq.     686.55  E(vib)   ...       0.07
freq.     776.05  E(vib)   ...       0.05
freq.     900.64  E(vib)   ...       0.03
freq.     909.96  E(vib)   ...       0.03
freq.     915.56  E(vib)   ...       0.03
freq.     920.22  E(vib)   ...       0.03
freq.     949.93  E(vib)   ...       0.03
freq.     954.65  E(vib)   ...       0.03
freq.     971.81  E(vib)   ...       0.03
freq.     972.30  E(vib)   ...       0.03
freq.    1040.42  E(vib)   ...       0.02
freq.    1048.67  E(vib)   ...       0.02
freq.    1101.22  E(vib)   ...       0.02
freq.    1114.84  E(vib)   ...       0.01
freq.    1135.15  E(vib)   ...       0.01
freq.    1170.81  E(vib)   ...       0.01
freq.    1173.86  E(vib)   ...       0.01
freq.    1182.34  E(vib)   ...       0.01
freq.    1206.44  E(vib)   ...       0.01
freq.    1223.21  E(vib)   ...       0.01
freq.    1287.27  E(vib)   ...       0.01
freq.    1346.08  E(vib)   ...       0.01
freq.    1358.46  E(vib)   ...       0.01
freq.    1362.35  E(vib)   ...       0.01
freq.    1375.71  E(vib)   ...       0.01
freq.    1405.44  E(vib)   ...       0.00
freq.    1415.30  E(vib)   ...       0.00
freq.    1415.82  E(vib)   ...       0.00
freq.    1426.19  E(vib)   ...       0.00
freq.    1429.11  E(vib)   ...       0.00
freq.    1474.19  E(vib)   ...       0.00
freq.    1474.35  E(vib)   ...       0.00
freq.    1476.96  E(vib)   ...       0.00
freq.    1479.07  E(vib)   ...       0.00
freq.    1479.76  E(vib)   ...       0.00
freq.    1485.46  E(vib)   ...       0.00
freq.    1491.02  E(vib)   ...       0.00
freq.    1492.11  E(vib)   ...       0.00
freq.    1502.37  E(vib)   ...       0.00
freq.    1508.43  E(vib)   ...       0.00
freq.    1629.40  E(vib)   ...       0.00
freq.    1636.92  E(vib)   ...       0.00
freq.    3072.11  E(vib)   ...       0.00
freq.    3072.60  E(vib)   ...       0.00
freq.    3074.89  E(vib)   ...       0.00
freq.    3075.33  E(vib)   ...       0.00
freq.    3121.49  E(vib)   ...       0.00
freq.    3122.19  E(vib)   ...       0.00
freq.    3153.13  E(vib)   ...       0.00
freq.    3153.50  E(vib)   ...       0.00
freq.    3158.93  E(vib)   ...       0.00
freq.    3159.38  E(vib)   ...       0.00
freq.    3165.19  E(vib)   ...       0.00
freq.    3165.60  E(vib)   ...       0.00
freq.    3167.54  E(vib)   ...       0.00
freq.    3168.01  E(vib)   ...       0.00
freq.    3299.32  E(vib)   ...       0.00
freq.    3302.86  E(vib)   ...       0.00
freq.    3320.16  E(vib)   ...       0.00

------------
INNER ENERGY
------------

The inner energy is: U= E(el) + E(ZPE) + E(vib) + E(rot) + E(trans)
    E(el)   - is the total energy from the electronic structure calculation
              = E(kin-el) + E(nuc-el) + E(el-el) + E(nuc-nuc)
    E(ZPE)  - the the zero temperature vibrational energy from the frequency calculation
    E(vib)  - the the finite temperature correction to E(ZPE) due to population
              of excited vibrational states
    E(rot)  - is the rotational thermal energy
    E(trans)- is the translational thermal energy

Summary of contributions to the inner energy U:
Electronic energy                ...   -462.62843162 Eh
Zero point energy                ...      0.25597865 Eh     160.63 kcal/mol
Thermal vibrational correction   ...      0.00916227 Eh       5.75 kcal/mol
Thermal rotational correction    ...      0.00141627 Eh       0.89 kcal/mol
Thermal translational correction ...      0.00141627 Eh       0.89 kcal/mol
-----------------------------------------------------------------------
Total thermal energy                   -462.36045816 Eh

Summary of corrections to the electronic energy:
(perhaps to be used in another calculation)
Total thermal correction                  0.01199481 Eh       7.53 kcal/mol
Non-thermal (ZPE) correction              0.25597865 Eh     160.63 kcal/mol
-----------------------------------------------------------------------
Total correction                          0.26797346 Eh     168.16 kcal/mol

--------
ENTHALPY
--------

The enthalpy is H = U + kB*T
                kB is Boltzmann's constant
Total free energy                 ...   -462.36045816 Eh
Thermal Enthalpy correction       ...      0.00094421 Eh       0.59 kcal/mol
-----------------------------------------------------------------------
Total Enthalpy                    ...   -462.35951395 Eh

Note: Only C1 symmetry has been detected, increase convergence thresholds
      if your molecule has a higher symmetry. Symmetry factor of 1.0 is
      used for the rotational entropy correction.

Note: Rotational entropy computed according to Herzberg
Infrared and Raman Spectra, Chapter V,1, Van Nostrand Reinhold, 1945
Point Group:  C1, Symmetry Number:   1
Rotational constants in cm-1:     0.090458     0.018520     0.017881

Vibrational entropy computed according to the QRRHO of S. Grimme
Chem.Eur.J. 2012 18 9955

-------
ENTROPY
-------

The entropy contributions are T*S = T*(S(el)+S(vib)+S(rot)+S(trans))
     S(el)   - electronic entropy
     S(vib)  - vibrational entropy
     S(rot)  - rotational entropy

                             ****ORCA TERMINATED NORMALLY****
TOTAL RUN TIME: 0 days 0 hours 49 minutes 11 seconds 273 msec
