                         Program Version 5.0.4 -  RELEASE  -
|  1> # ORCA 5.0.4 - /users/bwb16179/postgrad/2024_06/pKa_Reviewer_Comments/Aq_Z=1/5_prot.inp # write input file
|  2> # Basic Mode
|  3> #
|  4> ! Opt Freq wB97X Def2-TZVP D4 SlowConv TightSCF Defgrid2 Def2/J RIJCOSX CPCM(Water)
|  5>
|  6> %PAL NPROCS 4 END
|  7>
|  8> %maxcore 4500
|  9>
| 10> %geom
| 11> Maxiter 150
| 12> END
| 13>
| 14> * xyzfile 1 1 5_prot.xyz
| 15>
| 16>                          ****END OF INPUT****
 Total Charge           Charge          ....    1
 Multiplicity           Mult            ....    1
 Number of Electrons    NEL             ....  100
Dispersion correction           -0.005587229
FINAL SINGLE POINT ENERGY      -541.267066964512
Dispersion correction            ... Starting D4
Dispersion correction           -0.005599918
FINAL SINGLE POINT ENERGY      -541.268497051560
Dispersion correction            ... Starting D4
Dispersion correction           -0.005601077
FINAL SINGLE POINT ENERGY      -541.268505511060
Dispersion correction            ... Starting D4
                    ***********************HURRAY********************

CARTESIAN COORDINATES (ANGSTROEM)
---------------------------------
  C      0.000000    2.507449    0.209732
  C     -0.000000   -2.507448    0.209733
  N     -0.000001    1.083384   -0.241757
  N     -0.000001   -1.083384   -0.241756
  C     -0.000000    0.675073   -1.556105
  C     -0.000002   -0.675074   -1.556104
  C     -0.000002    0.000001    0.525343
  H     -0.000001    1.368598   -2.379719
  H     -0.000002   -1.368600   -2.379717
  H     -0.000002    0.000001    1.600872
  C      1.260031    3.170897   -0.338331
  C      1.260030   -3.170896   -0.338332
  C     -1.260030   -3.170898   -0.338331
  C     -1.260029    3.170898   -0.338332
  H      1.278990    3.158722   -1.429107
  H      1.278988   -3.158720   -1.429108
  H     -1.278990   -3.158720   -1.429108
  H     -1.278987    3.158721   -1.429109
  H      1.282782    4.210980   -0.011212
  H      1.282780   -4.210979   -0.011215
  H     -1.282778   -4.210981   -0.011216
  H     -1.282779    4.210981   -0.011215
  H      2.153589    2.669068    0.036739
  H      2.153589   -2.669068    0.036738
  H     -2.153589   -2.669072    0.036740
  H     -2.153588    2.669069    0.036737
  C     -0.000000    2.556420    1.730563
  C      0.000000   -2.556421    1.730564
  H      0.000001    3.603262    2.033014
  H      0.000003   -3.603263    2.033013
  H     -0.890967    2.085575    2.150483
  H     -0.890967   -2.085577    2.150484
  H      0.890966   -2.085573    2.150484
  H      0.890966    2.085573    2.150483

 Multiplicity           Mult            ....    1
 Number of Electrons    NEL             ....  100
 Basis Dimension        Dim             ....  529

ORBITAL ENERGIES
----------------

  NO   OCC          E(Eh)            E(eV)
   0   2.0000     -14.492276      -394.3549
   1   2.0000     -14.492257      -394.3544
   2   2.0000     -10.363329      -282.0005
   3   2.0000     -10.332453      -281.1603
   4   2.0000     -10.332449      -281.1602
   5   2.0000     -10.314054      -280.6597
   6   2.0000     -10.313301      -280.6392
   7   2.0000     -10.254989      -279.0524
   8   2.0000     -10.254989      -279.0524
   9   2.0000     -10.252555      -278.9862
  10   2.0000     -10.252554      -278.9862
  11   2.0000     -10.252548      -278.9860
  12   2.0000     -10.252546      -278.9860
  13   2.0000      -1.219216       -33.1765
  14   2.0000      -1.101560       -29.9750
  15   2.0000      -0.986217       -26.8363
  16   2.0000      -0.940110       -25.5817
  17   2.0000      -0.927519       -25.2391
  18   2.0000      -0.839680       -22.8489
  19   2.0000      -0.833370       -22.6772
  20   2.0000      -0.832077       -22.6420
  21   2.0000      -0.831508       -22.6265
  22   2.0000      -0.796240       -21.6668
  23   2.0000      -0.767726       -20.8909
  24   2.0000      -0.728616       -19.8266
  25   2.0000      -0.704682       -19.1754
  26   2.0000      -0.647075       -17.6078
  27   2.0000      -0.627419       -17.0729
  28   2.0000      -0.605984       -16.4897
  29   2.0000      -0.587256       -15.9801
  30   2.0000      -0.584011       -15.8917
  31   2.0000      -0.577820       -15.7233
  32   2.0000      -0.577409       -15.7121
  33   2.0000      -0.556689       -15.1483
  34   2.0000      -0.555667       -15.1205
  35   2.0000      -0.546339       -14.8666
  36   2.0000      -0.520916       -14.1748
  37   2.0000      -0.503606       -13.7038
  38   2.0000      -0.501014       -13.6333
  39   2.0000      -0.499280       -13.5861
  40   2.0000      -0.496911       -13.5216
  41   2.0000      -0.486683       -13.2433
  42   2.0000      -0.482084       -13.1182
  43   2.0000      -0.481874       -13.1125
  44   2.0000      -0.467889       -12.7319
  45   2.0000      -0.454010       -12.3542
  46   2.0000      -0.452982       -12.3263
  47   2.0000      -0.450540       -12.2598
  48   2.0000      -0.407132       -11.0786
  49   2.0000      -0.374106       -10.1799
  50   0.0000       0.061618         1.6767
  51   0.0000       0.090577         2.4647
  52   0.0000       0.105039         2.8583
  53   0.0000       0.123389         3.3576
  54   0.0000       0.141994         3.8639

MULLIKEN ATOMIC CHARGES
-----------------------
   0 C :    0.030187
   1 C :    0.030233
   2 N :    0.015115
   3 N :    0.015095
   4 C :   -0.129177
   5 C :   -0.129006
   6 C :    0.065900
   7 H :    0.246967
   8 H :    0.246980
   9 H :    0.276733
  10 C :   -0.394947
  11 C :   -0.394980
  12 C :   -0.395013
  13 C :   -0.395013
  14 H :    0.148513
  15 H :    0.148529
  16 H :    0.148525
  17 H :    0.148534
  18 H :    0.154280
  19 H :    0.154282
  20 H :    0.154298
  21 H :    0.154297
  22 H :    0.150768
  23 H :    0.150772
  24 H :    0.150774
  25 H :    0.150768
  26 C :   -0.449109
  27 C :   -0.449120
  28 H :    0.168020
  29 H :    0.168020
  30 H :    0.164693
  31 H :    0.164696
  32 H :    0.164693
  33 H :    0.164692
Sum of atomic charges:    1.0000000

LOEWDIN ATOMIC CHARGES
----------------------
   0 C :   -0.338426
   1 C :   -0.338426
   2 N :    0.322073
   3 N :    0.322073
   4 C :   -0.151233
   5 C :   -0.151232
   6 C :   -0.135293
   7 H :    0.164698
   8 H :    0.164697
   9 H :    0.173181
  10 C :   -0.242509
  11 C :   -0.242509
  12 C :   -0.242509
  13 C :   -0.242509
  14 H :    0.130774
  15 H :    0.130774
  16 H :    0.130775
  17 H :    0.130775
  18 H :    0.138501
  19 H :    0.138501
  20 H :    0.138501
  21 H :    0.138501
  22 H :    0.133296
  23 H :    0.133296
  24 H :    0.133296
  25 H :    0.133296
  26 C :   -0.247325
  27 C :   -0.247325
  28 H :    0.142677
  29 H :    0.142677
  30 H :    0.134234
  31 H :    0.134234
  32 H :    0.134234
  33 H :    0.134234

  Mayer bond orders larger than 0.100000
B(  0-C ,  2-N ) :   0.8566 B(  0-C , 10-C ) :   0.9824 B(  0-C , 13-C ) :   0.9823
B(  0-C , 26-C ) :   0.9378 B(  1-C ,  3-N ) :   0.8566 B(  1-C , 11-C ) :   0.9824
B(  1-C , 12-C ) :   0.9823 B(  1-C , 27-C ) :   0.9378 B(  2-N ,  4-C ) :   1.1262
B(  2-N ,  6-C ) :   1.3850 B(  3-N ,  5-C ) :   1.1263 B(  3-N ,  6-C ) :   1.3850
B(  4-C ,  5-C ) :   1.7445 B(  4-C ,  7-H ) :   0.9168 B(  5-C ,  8-H ) :   0.9167
B(  6-C ,  9-H ) :   0.9035 B( 10-C , 14-H ) :   0.9596 B( 10-C , 18-H ) :   0.9720
B( 10-C , 22-H ) :   0.9687 B( 11-C , 15-H ) :   0.9596 B( 11-C , 19-H ) :   0.9720
B( 11-C , 23-H ) :   0.9687 B( 12-C , 16-H ) :   0.9595 B( 12-C , 20-H ) :   0.9720
B( 12-C , 24-H ) :   0.9687 B( 13-C , 17-H ) :   0.9596 B( 13-C , 21-H ) :   0.9720
B( 13-C , 25-H ) :   0.9687 B( 26-C , 28-H ) :   0.9674 B( 26-C , 30-H ) :   0.9679
B( 26-C , 33-H ) :   0.9679 B( 27-C , 29-H ) :   0.9674 B( 27-C , 31-H ) :   0.9679
B( 27-C , 32-H ) :   0.9679

Dispersion correction           -0.005601007
FINAL SINGLE POINT ENERGY      -541.268507573818

DIPOLE MOMENT
-------------
                                X             Y             Z
Electronic contribution:     -0.00001       0.00000      -3.99194
Nuclear contribution   :      0.00001      -0.00000       4.03890
                        -----------------------------------------
Total Dipole Moment    :     -0.00000      -0.00000       0.04697
                        -----------------------------------------
Magnitude (a.u.)       :      0.04697
Magnitude (Debye)      :      0.11939

Dispersion correction in the Hessian             ... Starting D4

VIBRATIONAL FREQUENCIES
-----------------------

Scaling factor for frequencies =  1.000000000  (already applied!)

   0:         0.00 cm**-1
   1:         0.00 cm**-1
   2:         0.00 cm**-1
   3:         0.00 cm**-1
   4:         0.00 cm**-1
   5:         0.00 cm**-1
   6:        21.61 cm**-1
   7:        38.93 cm**-1
   8:       121.45 cm**-1
   9:       144.44 cm**-1
  10:       146.22 cm**-1
  11:       220.35 cm**-1
  12:       227.43 cm**-1
  13:       252.09 cm**-1
  14:       260.29 cm**-1
  15:       268.08 cm**-1
  16:       275.75 cm**-1
  17:       322.74 cm**-1
  18:       324.57 cm**-1
  19:       344.22 cm**-1
  20:       352.55 cm**-1
  21:       364.80 cm**-1
  22:       370.63 cm**-1
  23:       397.94 cm**-1
  24:       442.68 cm**-1
  25:       467.07 cm**-1
  26:       467.14 cm**-1
  27:       519.61 cm**-1
  28:       575.31 cm**-1
  29:       634.99 cm**-1
  30:       678.49 cm**-1
  31:       690.48 cm**-1
  32:       785.77 cm**-1
  33:       841.18 cm**-1
  34:       845.36 cm**-1
  35:       898.41 cm**-1
  36:       928.33 cm**-1
  37:       952.53 cm**-1
  38:       952.64 cm**-1
  39:       964.88 cm**-1
  40:       965.36 cm**-1
  41:       979.49 cm**-1
  42:       979.78 cm**-1
  43:      1026.41 cm**-1
  44:      1043.23 cm**-1
  45:      1061.43 cm**-1
  46:      1061.88 cm**-1
  47:      1065.76 cm**-1
  48:      1066.62 cm**-1
  49:      1147.50 cm**-1
  50:      1159.45 cm**-1
  51:      1229.29 cm**-1
  52:      1241.68 cm**-1
  53:      1268.77 cm**-1
  54:      1272.88 cm**-1
  55:      1278.64 cm**-1
  56:      1281.08 cm**-1
  57:      1319.71 cm**-1
  58:      1347.59 cm**-1
  59:      1413.89 cm**-1
  60:      1414.00 cm**-1
  61:      1415.51 cm**-1
  62:      1415.90 cm**-1
  63:      1434.14 cm**-1
  64:      1434.48 cm**-1
  65:      1435.73 cm**-1
  66:      1461.12 cm**-1
  67:      1469.93 cm**-1
  68:      1469.94 cm**-1
  69:      1476.87 cm**-1
  70:      1476.93 cm**-1
  71:      1477.78 cm**-1
  72:      1478.84 cm**-1
  73:      1495.53 cm**-1
  74:      1496.11 cm**-1
  75:      1497.73 cm**-1
  76:      1497.86 cm**-1
  77:      1504.31 cm**-1
  78:      1505.13 cm**-1
  79:      1617.96 cm**-1
  80:      1640.68 cm**-1
  81:      3070.92 cm**-1
  82:      3070.93 cm**-1
  83:      3073.03 cm**-1
  84:      3073.04 cm**-1
  85:      3077.51 cm**-1
  86:      3077.58 cm**-1
  87:      3152.14 cm**-1
  88:      3152.30 cm**-1
  89:      3157.23 cm**-1
  90:      3157.25 cm**-1
  91:      3158.58 cm**-1
  92:      3158.60 cm**-1
  93:      3161.97 cm**-1
  94:      3161.98 cm**-1
  95:      3163.84 cm**-1
  96:      3163.87 cm**-1
  97:      3170.08 cm**-1
  98:      3170.25 cm**-1
  99:      3307.74 cm**-1
 100:      3324.31 cm**-1
 101:      3333.68 cm**-1

IR SPECTRUM
-----------

 Mode   freq       eps      Int      T**2         TX        TY        TZ
       cm**-1   L/(mol*cm) km/mol    a.u.
----------------------------------------------------------------------------
  6:     21.61   0.000000    0.00  0.000000  (-0.000000 -0.000001 -0.000000)
  7:     38.93   0.000003    0.02  0.000028  ( 0.005254 -0.000000  0.000000)
  8:    121.45   0.000015    0.08  0.000039  ( 0.006244 -0.000000  0.000000)
  9:    144.44   0.000031    0.16  0.000068  ( 0.000000 -0.000000  0.008232)
 10:    146.22   0.000000    0.00  0.000000  ( 0.000000  0.000001 -0.000000)
 11:    220.35   0.000011    0.05  0.000015  ( 0.003896 -0.000001  0.000000)
 12:    227.43   0.000000    0.00  0.000000  ( 0.000000 -0.000000 -0.000000)
 13:    252.09   0.000002    0.01  0.000003  (-0.000000 -0.001663  0.000000)
 14:    260.29   0.000012    0.06  0.000014  ( 0.000000 -0.000000 -0.003729)
 15:    268.08   0.000004    0.02  0.000004  ( 0.000000  0.000000  0.002052)
 16:    275.75   0.000001    0.00  0.000001  (-0.000000 -0.001027  0.000000)
 17:    322.74   0.000000    0.00  0.000000  (-0.000000 -0.000000  0.000000)
 18:    324.57   0.000000    0.00  0.000000  ( 0.000213  0.000000 -0.000000)
 19:    344.22   0.000081    0.41  0.000073  (-0.008569  0.000000  0.000000)
 20:    352.55   0.000015    0.08  0.000013  ( 0.000000  0.000000  0.003639)
 21:    364.80   0.000000    0.00  0.000000  ( 0.000000  0.000001 -0.000000)
 22:    370.63   0.000007    0.03  0.000006  ( 0.000000  0.002392  0.000000)
 23:    397.94   0.000011    0.05  0.000008  (-0.000000  0.002881  0.000000)
 24:    442.68   0.000012    0.06  0.000008  (-0.002864  0.000000 -0.000000)
 25:    467.07   0.000014    0.07  0.000009  (-0.000000  0.000000  0.003044)
 26:    467.14   0.000000    0.00  0.000000  (-0.000000 -0.000001 -0.000004)
 27:    519.61   0.000174    0.88  0.000104  ( 0.000000 -0.010209 -0.000000)
 28:    575.31   0.000212    1.07  0.000115  (-0.000000 -0.000000  0.010729)
 29:    634.99   0.001764    8.92  0.000867  ( 0.000000 -0.029447 -0.000000)
 30:    678.49   0.011893   60.10  0.005470  ( 0.073958 -0.000000  0.000000)
 31:    690.48   0.000000    0.00  0.000000  (-0.000001  0.000001  0.000000)
 32:    785.77   0.011110   56.14  0.004412  ( 0.066424  0.000001  0.000000)
 33:    841.18   0.000055    0.28  0.000021  ( 0.000000 -0.000000 -0.004530)
 34:    845.36   0.000414    2.09  0.000153  ( 0.000000  0.012361 -0.000000)
 35:    898.41   0.008717   44.05  0.003028  (-0.055027  0.000000  0.000000)
 36:    928.33   0.000000    0.00  0.000000  (-0.000000 -0.000001 -0.000000)
 37:    952.53   0.000680    3.44  0.000223  (-0.014929  0.000000  0.000000)
 38:    952.64   0.000000    0.00  0.000000  ( 0.000013 -0.000000  0.000000)
 39:    964.88   0.000912    4.61  0.000295  ( 0.000000  0.000001  0.017170)
 40:    965.36   0.000039    0.20  0.000012  ( 0.000000 -0.003532  0.000004)
 41:    979.49   0.000040    0.20  0.000013  ( 0.003582  0.000000  0.000000)
 42:    979.78   0.000000    0.00  0.000000  (-0.000001 -0.000000  0.000000)
 43:   1026.41   0.001005    5.08  0.000306  (-0.000000  0.017483  0.000000)
 44:   1043.23   0.000047    0.24  0.000014  ( 0.000000  0.000000 -0.003747)
 45:   1061.43   0.000003    0.01  0.000001  (-0.000000  0.000000  0.000901)
 46:   1061.88   0.000027    0.14  0.000008  ( 0.000000  0.002804 -0.000000)
 47:   1065.76   0.000000    0.00  0.000000  (-0.000000 -0.000000 -0.000000)
 48:   1066.62   0.000318    1.61  0.000093  (-0.009649 -0.000000  0.000000)
 49:   1147.50   0.004161   21.03  0.001131  (-0.000000  0.000001 -0.033637)
 50:   1159.45   0.023238  117.44  0.006255  ( 0.000000 -0.079086 -0.000000)
 51:   1229.29   0.001273    6.43  0.000323  (-0.000000 -0.000002 -0.017976)
 52:   1241.68   0.074702  377.51  0.018774  (-0.000000  0.137020 -0.000000)
 53:   1268.77   0.000408    2.06  0.000100  ( 0.000000 -0.000000 -0.010013)
 54:   1272.88   0.000395    2.00  0.000097  ( 0.000001 -0.009844  0.000000)
 55:   1278.64   0.000000    0.00  0.000000  (-0.000000 -0.000000 -0.000000)
 56:   1281.08   0.006882   34.78  0.001676  ( 0.040944  0.000000 -0.000000)
 57:   1319.71   0.000003    0.02  0.000001  (-0.000000 -0.000865  0.000000)
 58:   1347.59   0.005672   28.66  0.001313  ( 0.000000 -0.000000  0.036242)
 59:   1413.89   0.000000    0.00  0.000000  ( 0.000084  0.000000 -0.000002)
 60:   1414.00   0.009704   49.04  0.002142  ( 0.046277  0.000000 -0.000001)
 61:   1415.51   0.000024    0.12  0.000005  (-0.000002  0.002288 -0.000002)
 62:   1415.90   0.010545   53.29  0.002324  ( 0.000002 -0.000000  0.048210)
 63:   1434.14   0.002938   14.85  0.000639  (-0.000000  0.025284  0.000004)
 64:   1434.48   0.000228    1.15  0.000050  (-0.000000 -0.000012  0.007050)
 65:   1435.73   0.000462    2.34  0.000100  (-0.000000  0.010024  0.000000)
 66:   1461.12   0.002563   12.95  0.000547  ( 0.000000 -0.000000 -0.023394)
 67:   1469.93   0.000000    0.00  0.000000  ( 0.000030  0.000000 -0.000000)
 68:   1469.94   0.000031    0.16  0.000007  ( 0.002584  0.000000 -0.000000)
 69:   1476.87   0.000000    0.00  0.000000  (-0.000001 -0.000000 -0.000000)
 70:   1476.93   0.000016    0.08  0.000003  ( 0.001836 -0.000000  0.000000)
 71:   1477.78   0.000058    0.29  0.000012  (-0.000000 -0.000001  0.003487)
 72:   1478.84   0.001048    5.29  0.000221  (-0.000000 -0.014869 -0.000000)
 73:   1495.53   0.000263    1.33  0.000055  ( 0.000001 -0.007407  0.000008)
 74:   1496.11   0.005098   25.76  0.001063  ( 0.000001  0.000002  0.032609)
 75:   1497.73   0.000000    0.00  0.000000  (-0.000007 -0.000000  0.000001)
 76:   1497.86   0.005045   25.50  0.001051  ( 0.032422  0.000000 -0.000001)
 77:   1504.31   0.002752   13.91  0.000571  (-0.000000 -0.023893 -0.000000)
 78:   1505.13   0.000433    2.19  0.000090  (-0.000000 -0.000002  0.009471)
 79:   1617.96   0.032659  165.04  0.006299  ( 0.000000 -0.079366 -0.000000)
 80:   1640.68   0.002538   12.83  0.000483  ( 0.000000 -0.000000  0.021973)
 81:   3070.92   0.005975   30.19  0.000607  (-0.000000  0.000045 -0.024640)
 82:   3070.93   0.001383    6.99  0.000141  ( 0.000000 -0.011853 -0.000094)
 83:   3073.03   0.000003    0.01  0.000000  ( 0.000536 -0.000000 -0.000000)
 84:   3073.04   0.009199   46.49  0.000934  (-0.030565 -0.000000  0.000000)
 85:   3077.51   0.000679    3.43  0.000069  ( 0.000000  0.008297 -0.000005)
 86:   3077.58   0.000294    1.48  0.000030  (-0.000001  0.000008  0.005457)
 87:   3152.14   0.005411   27.34  0.000536  ( 0.023145 -0.000000  0.000000)
 88:   3152.30   0.000000    0.00  0.000000  (-0.000003  0.000000 -0.000000)
 89:   3157.23   0.007502   37.91  0.000741  ( 0.027230  0.000002 -0.000002)
 90:   3157.25   0.000000    0.00  0.000000  ( 0.000114 -0.000001  0.000003)
 91:   3158.58   0.001652    8.35  0.000163  ( 0.000002 -0.012776 -0.000063)
 92:   3158.60   0.011892   60.10  0.001175  (-0.000002  0.000023 -0.034277)
 93:   3161.97   0.002405   12.16  0.000237  ( 0.015407 -0.000001  0.000001)
 94:   3161.98   0.000000    0.00  0.000000  ( 0.000102 -0.000001  0.000000)
 95:   3163.84   0.001305    6.59  0.000129  ( 0.000001  0.011345  0.000089)
 96:   3163.87   0.004759   24.05  0.000469  ( 0.000000  0.000046 -0.021667)
 97:   3170.08   0.016271   82.23  0.001602  ( 0.000000 -0.040022 -0.000001)
 98:   3170.25   0.000882    4.46  0.000087  ( 0.000000 -0.000008  0.009320)
 99:   3307.74   0.003872   19.57  0.000365  ( 0.000000 -0.019114 -0.000000)
100:   3324.31   0.006057   30.61  0.000569  ( 0.000000  0.000000 -0.023846)
101:   3333.68   0.006014   30.39  0.000563  ( 0.000000 -0.000000  0.023727)

--------------------------
THERMOCHEMISTRY AT 298.15K
--------------------------

Temperature         ... 298.15 K
Pressure            ... 1.00 atm
Total Mass          ... 181.30 AMU

Throughout the following assumptions are being made:
  (1) The electronic state is orbitally nondegenerate
  (2) There are no thermally accessible electronically excited states
  (3) Hindered rotations indicated by low frequency modes are not
      treated as such but are treated as vibrations and this may
      cause some error
  (4) All equations used are the standard statistical mechanics
      equations for an ideal gas
  (5) All vibrations are strictly harmonic

freq.      21.61  E(vib)   ...       0.56
freq.      38.93  E(vib)   ...       0.54
freq.     121.45  E(vib)   ...       0.44
freq.     144.44  E(vib)   ...       0.41
freq.     146.22  E(vib)   ...       0.41
freq.     220.35  E(vib)   ...       0.33
freq.     227.43  E(vib)   ...       0.33
freq.     252.09  E(vib)   ...       0.30
freq.     260.29  E(vib)   ...       0.30
freq.     268.08  E(vib)   ...       0.29
freq.     275.75  E(vib)   ...       0.28
freq.     322.74  E(vib)   ...       0.25
freq.     324.57  E(vib)   ...       0.24
freq.     344.22  E(vib)   ...       0.23
freq.     352.55  E(vib)   ...       0.22
freq.     364.80  E(vib)   ...       0.22
freq.     370.63  E(vib)   ...       0.21
freq.     397.94  E(vib)   ...       0.20
freq.     442.68  E(vib)   ...       0.17
freq.     467.07  E(vib)   ...       0.16
freq.     467.14  E(vib)   ...       0.16
freq.     519.61  E(vib)   ...       0.13
freq.     575.31  E(vib)   ...       0.11
freq.     634.99  E(vib)   ...       0.09
freq.     678.49  E(vib)   ...       0.08
freq.     690.48  E(vib)   ...       0.07
freq.     785.77  E(vib)   ...       0.05
freq.     841.18  E(vib)   ...       0.04
freq.     845.36  E(vib)   ...       0.04
freq.     898.41  E(vib)   ...       0.03
freq.     928.33  E(vib)   ...       0.03
freq.     952.53  E(vib)   ...       0.03
freq.     952.64  E(vib)   ...       0.03
freq.     964.88  E(vib)   ...       0.03
freq.     965.36  E(vib)   ...       0.03
freq.     979.49  E(vib)   ...       0.03
freq.     979.78  E(vib)   ...       0.02
freq.    1026.41  E(vib)   ...       0.02
freq.    1043.23  E(vib)   ...       0.02
freq.    1061.43  E(vib)   ...       0.02
freq.    1061.88  E(vib)   ...       0.02
freq.    1065.76  E(vib)   ...       0.02
freq.    1066.62  E(vib)   ...       0.02
freq.    1147.50  E(vib)   ...       0.01
freq.    1159.45  E(vib)   ...       0.01
freq.    1229.29  E(vib)   ...       0.01
freq.    1241.68  E(vib)   ...       0.01
freq.    1268.77  E(vib)   ...       0.01
freq.    1272.88  E(vib)   ...       0.01
freq.    1278.64  E(vib)   ...       0.01
freq.    1281.08  E(vib)   ...       0.01
freq.    1319.71  E(vib)   ...       0.01
freq.    1347.59  E(vib)   ...       0.01
freq.    1413.89  E(vib)   ...       0.00
freq.    1414.00  E(vib)   ...       0.00
freq.    1415.51  E(vib)   ...       0.00
freq.    1415.90  E(vib)   ...       0.00
freq.    1434.14  E(vib)   ...       0.00
freq.    1434.48  E(vib)   ...       0.00
freq.    1435.73  E(vib)   ...       0.00
freq.    1461.12  E(vib)   ...       0.00
freq.    1469.93  E(vib)   ...       0.00
freq.    1469.94  E(vib)   ...       0.00
freq.    1476.87  E(vib)   ...       0.00
freq.    1476.93  E(vib)   ...       0.00
freq.    1477.78  E(vib)   ...       0.00
freq.    1478.84  E(vib)   ...       0.00
freq.    1495.53  E(vib)   ...       0.00
freq.    1496.11  E(vib)   ...       0.00
freq.    1497.73  E(vib)   ...       0.00
freq.    1497.86  E(vib)   ...       0.00
freq.    1504.31  E(vib)   ...       0.00
freq.    1505.13  E(vib)   ...       0.00
freq.    1617.96  E(vib)   ...       0.00
freq.    1640.68  E(vib)   ...       0.00
freq.    3070.92  E(vib)   ...       0.00
freq.    3070.93  E(vib)   ...       0.00
freq.    3073.03  E(vib)   ...       0.00
freq.    3073.04  E(vib)   ...       0.00
freq.    3077.51  E(vib)   ...       0.00
freq.    3077.58  E(vib)   ...       0.00
freq.    3152.14  E(vib)   ...       0.00
freq.    3152.30  E(vib)   ...       0.00
freq.    3157.23  E(vib)   ...       0.00
freq.    3157.25  E(vib)   ...       0.00
freq.    3158.58  E(vib)   ...       0.00
freq.    3158.60  E(vib)   ...       0.00
freq.    3161.97  E(vib)   ...       0.00
freq.    3161.98  E(vib)   ...       0.00
freq.    3163.84  E(vib)   ...       0.00
freq.    3163.87  E(vib)   ...       0.00
freq.    3170.08  E(vib)   ...       0.00
freq.    3170.25  E(vib)   ...       0.00
freq.    3307.74  E(vib)   ...       0.00
freq.    3324.31  E(vib)   ...       0.00
freq.    3333.68  E(vib)   ...       0.00

------------
INNER ENERGY
------------

The inner energy is: U= E(el) + E(ZPE) + E(vib) + E(rot) + E(trans)
    E(el)   - is the total energy from the electronic structure calculation
              = E(kin-el) + E(nuc-el) + E(el-el) + E(nuc-nuc)
    E(ZPE)  - the the zero temperature vibrational energy from the frequency calculation
    E(vib)  - the the finite temperature correction to E(ZPE) due to population
              of excited vibrational states
    E(rot)  - is the rotational thermal energy
    E(trans)- is the translational thermal energy

Summary of contributions to the inner energy U:
Electronic energy                ...   -541.26850757 Eh
Zero point energy                ...      0.31156833 Eh     195.51 kcal/mol
Thermal vibrational correction   ...      0.01171748 Eh       7.35 kcal/mol
Thermal rotational correction    ...      0.00141627 Eh       0.89 kcal/mol
Thermal translational correction ...      0.00141627 Eh       0.89 kcal/mol
-----------------------------------------------------------------------
Total thermal energy                   -540.94238922 Eh

Summary of corrections to the electronic energy:
(perhaps to be used in another calculation)
Total thermal correction                  0.01455002 Eh       9.13 kcal/mol
Non-thermal (ZPE) correction              0.31156833 Eh     195.51 kcal/mol
-----------------------------------------------------------------------
Total correction                          0.32611836 Eh     204.64 kcal/mol

--------
ENTHALPY
--------

The enthalpy is H = U + kB*T
                kB is Boltzmann's constant
Total free energy                 ...   -540.94238922 Eh
Thermal Enthalpy correction       ...      0.00094421 Eh       0.59 kcal/mol
-----------------------------------------------------------------------
Total Enthalpy                    ...   -540.94144501 Eh

Note: Rotational entropy computed according to Herzberg
Infrared and Raman Spectra, Chapter V,1, Van Nostrand Reinhold, 1945
Point Group:  C2v, Symmetry Number:   2
Rotational constants in cm-1:     0.055787     0.014862     0.013890

                             ****ORCA TERMINATED NORMALLY****
TOTAL RUN TIME: 0 days 1 hours 17 minutes 1 seconds 573 msec
