                         Program Version 5.0.4 -  RELEASE  -
|  1> # ORCA 5.0.4 - /users/bwb16179/postgrad/2024_06/pKa_Reviewer_Comments/Aq_Z=1/6_prot.inp # write input file
|  2> # Basic Mode
|  3> #
|  4> ! Opt Freq wB97X Def2-TZVP D4 SlowConv TightSCF Defgrid2 Def2/J RIJCOSX CPCM(Water)
|  5>
|  6> %PAL NPROCS 4 END
|  7>
|  8> %maxcore 4500
|  9>
| 10> %geom
| 11> Maxiter 150
| 12> END
| 13>
| 14> * xyzfile 1 1 6_prot.xyz
| 15>
| 16>                          ****END OF INPUT****
 Total Charge           Charge          ....    1
 Multiplicity           Mult            ....    1
 Number of Electrons    NEL             ....  100
Dispersion correction           -0.005609379
FINAL SINGLE POINT ENERGY      -541.275813076078
Dispersion correction            ... Starting D4
Dispersion correction           -0.005626873
FINAL SINGLE POINT ENERGY      -541.277194360934
Dispersion correction            ... Starting D4
Dispersion correction           -0.005627803
FINAL SINGLE POINT ENERGY      -541.277204685869
Dispersion correction            ... Starting D4
Dispersion correction           -0.005627802
FINAL SINGLE POINT ENERGY      -541.277208039941
Dispersion correction            ... Starting D4
                    ***********************HURRAY********************

CARTESIAN COORDINATES (ANGSTROEM)
---------------------------------
  C      0.000001    0.680657   -1.313076
  C      0.000000   -0.680657   -1.313076
  C      0.000002    0.000000    0.781681
  N      0.000000    1.078165    0.012310
  N      0.000002   -1.078164    0.012310
  H      0.000003    0.000001    1.860645
  C     -0.000001    1.645686   -2.443993
  C     -0.000002   -1.645686   -2.443992
  H     -0.884809    2.284303   -2.419342
  H     -0.884806   -2.284308   -2.419337
  H      0.884808   -2.284300   -2.419348
  H      0.884806    2.284305   -2.419346
  H     -0.000003    1.103325   -3.387380
  H     -0.000010   -1.103326   -3.387380
  C     -1.267517    2.738761    1.304697
  C     -1.267523   -2.738766    1.304682
  C      1.267518   -2.738760    1.304700
  C      1.267523    2.738765    1.304686
  C     -0.000000    2.467167    0.511677
  C      0.000002   -2.467167    0.511678
  H     -2.154813    2.525394    0.707260
  H     -2.154813   -2.525404    0.707234
  H      2.154814   -2.525390    0.707266
  H      2.154815    2.525402    0.707242
  H     -1.297571    2.130901    2.211777
  H     -1.297591   -2.130903    2.211760
  H      1.297568   -2.130901    2.211781
  H      1.297586    2.130902    2.211765
  H     -1.289582    3.788582    1.598252
  H     -1.289587   -3.788586    1.598240
  H      1.289585   -3.788581    1.598254
  H      1.289587    3.788585    1.598244
  H     -0.000005    3.088725   -0.382476
  H      0.000010   -3.088725   -0.382475

 Multiplicity           Mult            ....    1
 Number of Electrons    NEL             ....  100
 Basis Dimension        Dim             ....  529

ORBITAL ENERGIES
----------------

  NO   OCC          E(Eh)            E(eV)
   0   2.0000     -14.485191      -394.1621
   1   2.0000     -14.485168      -394.1615
   2   2.0000     -10.354952      -281.7726
   3   2.0000     -10.318625      -280.7841
   4   2.0000     -10.318621      -280.7839
   5   2.0000     -10.315141      -280.6893
   6   2.0000     -10.314452      -280.6705
   7   2.0000     -10.265371      -279.3350
   8   2.0000     -10.265360      -279.3347
   9   2.0000     -10.252661      -278.9891
  10   2.0000     -10.252660      -278.9891
  11   2.0000     -10.252654      -278.9889
  12   2.0000     -10.252654      -278.9889
  13   2.0000      -1.213515       -33.0214
  14   2.0000      -1.096570       -29.8392
  15   2.0000      -0.973645       -26.4942
  16   2.0000      -0.944104       -25.6904
  17   2.0000      -0.922503       -25.1026
  18   2.0000      -0.872613       -23.7450
  19   2.0000      -0.830761       -22.6061
  20   2.0000      -0.829629       -22.5754
  21   2.0000      -0.828814       -22.5532
  22   2.0000      -0.809500       -22.0276
  23   2.0000      -0.735151       -20.0045
  24   2.0000      -0.729994       -19.8641
  25   2.0000      -0.697543       -18.9811
  26   2.0000      -0.649409       -17.6713
  27   2.0000      -0.627755       -17.0821
  28   2.0000      -0.612163       -16.6578
  29   2.0000      -0.595358       -16.2005
  30   2.0000      -0.575588       -15.6626
  31   2.0000      -0.567112       -15.4319
  32   2.0000      -0.559397       -15.2220
  33   2.0000      -0.539726       -14.6867
  34   2.0000      -0.538775       -14.6608
  35   2.0000      -0.532707       -14.4957
  36   2.0000      -0.525714       -14.3054
  37   2.0000      -0.519798       -14.1444
  38   2.0000      -0.515512       -14.0278
  39   2.0000      -0.506532       -13.7834
  40   2.0000      -0.503631       -13.7045
  41   2.0000      -0.494537       -13.4570
  42   2.0000      -0.489185       -13.3114
  43   2.0000      -0.481140       -13.0925
  44   2.0000      -0.470803       -12.8112
  45   2.0000      -0.460257       -12.5242
  46   2.0000      -0.455878       -12.4051
  47   2.0000      -0.453934       -12.3522
  48   2.0000      -0.401803       -10.9336
  49   2.0000      -0.345262        -9.3951
  50   0.0000       0.059171         1.6101
  51   0.0000       0.102029         2.7764
  52   0.0000       0.110718         3.0128
  53   0.0000       0.122485         3.3330
  54   0.0000       0.125193         3.4067

MULLIKEN ATOMIC CHARGES
-----------------------
   0 C :    0.041350
   1 C :    0.041461
   2 C :    0.063473
   3 N :   -0.021599
   4 N :   -0.021584
   5 H :    0.281803
   6 C :   -0.387193
   7 C :   -0.387203
   8 H :    0.173740
   9 H :    0.173741
  10 H :    0.173736
  11 H :    0.173738
  12 H :    0.150461
  13 H :    0.150478
  14 C :   -0.379381
  15 C :   -0.379404
  16 C :   -0.379409
  17 C :   -0.379394
  18 C :   -0.076811
  19 C :   -0.076774
  20 H :    0.146933
  21 H :    0.146932
  22 H :    0.146939
  23 H :    0.146931
  24 H :    0.141698
  25 H :    0.141706
  26 H :    0.141705
  27 H :    0.141703
  28 H :    0.152189
  29 H :    0.152190
  30 H :    0.152191
  31 H :    0.152184
  32 H :    0.150738
  33 H :    0.150733
Sum of atomic charges:    1.0000000

LOEWDIN ATOMIC CHARGES
----------------------
   0 C :   -0.175961
   1 C :   -0.175961
   2 C :   -0.134933
   3 N :    0.321824
   4 N :    0.321825
   5 H :    0.173809
   6 C :   -0.244763
   7 C :   -0.244762
   8 H :    0.141590
   9 H :    0.141589
  10 H :    0.141590
  11 H :    0.141589
  12 H :    0.142347
  13 H :    0.142346
  14 C :   -0.266249
  15 C :   -0.266249
  16 C :   -0.266250
  17 C :   -0.266249
  18 C :   -0.272467
  19 C :   -0.272467
  20 H :    0.130506
  21 H :    0.130506
  22 H :    0.130506
  23 H :    0.130506
  24 H :    0.129959
  25 H :    0.129960
  26 H :    0.129960
  27 H :    0.129960
  28 H :    0.135596
  29 H :    0.135595
  30 H :    0.135595
  31 H :    0.135595
  32 H :    0.166779
  33 H :    0.166779

  Mayer bond orders larger than 0.100000
B(  0-C ,  1-C ) :   1.6919 B(  0-C ,  3-N ) :   1.1907 B(  0-C ,  6-C ) :   0.8349
B(  1-C ,  4-N ) :   1.1907 B(  1-C ,  7-C ) :   0.8348 B(  2-C ,  3-N ) :   1.3697
B(  2-C ,  4-N ) :   1.3697 B(  2-C ,  5-H ) :   0.8945 B(  3-N , 18-C ) :   0.8304
B(  4-N , 19-C ) :   0.8304 B(  6-C ,  8-H ) :   0.9753 B(  6-C , 11-H ) :   0.9753
B(  6-C , 12-H ) :   0.9840 B(  7-C ,  9-H ) :   0.9753 B(  7-C , 10-H ) :   0.9753
B(  7-C , 13-H ) :   0.9840 B( 14-C , 18-C ) :   0.9759 B( 14-C , 20-H ) :   0.9742
B( 14-C , 24-H ) :   0.9610 B( 14-C , 28-H ) :   0.9735 B( 15-C , 19-C ) :   0.9758
B( 15-C , 21-H ) :   0.9742 B( 15-C , 25-H ) :   0.9610 B( 15-C , 29-H ) :   0.9735
B( 16-C , 19-C ) :   0.9759 B( 16-C , 22-H ) :   0.9742 B( 16-C , 26-H ) :   0.9610
B( 16-C , 30-H ) :   0.9735 B( 17-C , 18-C ) :   0.9759 B( 17-C , 23-H ) :   0.9742
B( 17-C , 27-H ) :   0.9610 B( 17-C , 31-H ) :   0.9735 B( 18-C , 32-H ) :   0.9667
B( 19-C , 33-H ) :   0.9667

Dispersion correction           -0.005627655
FINAL SINGLE POINT ENERGY      -541.277208514133

DIPOLE MOMENT
-------------
                                X             Y             Z
Electronic contribution:      0.00001      -0.00000      -2.78170
Nuclear contribution   :     -0.00001      -0.00000       2.85062
                        -----------------------------------------
Total Dipole Moment    :     -0.00000      -0.00000       0.06892
                        -----------------------------------------
Magnitude (a.u.)       :      0.06892
Magnitude (Debye)      :      0.17518

Dispersion correction in the Hessian             ... Starting D4

VIBRATIONAL FREQUENCIES
-----------------------

Scaling factor for frequencies =  1.000000000  (already applied!)

   0:         0.00 cm**-1
   1:         0.00 cm**-1
   2:         0.00 cm**-1
   3:         0.00 cm**-1
   4:         0.00 cm**-1
   5:         0.00 cm**-1
   6:        33.70 cm**-1
   7:        48.46 cm**-1
   8:        89.90 cm**-1
   9:       103.81 cm**-1
  10:       145.93 cm**-1
  11:       196.99 cm**-1
  12:       205.87 cm**-1
  13:       218.95 cm**-1
  14:       227.89 cm**-1
  15:       275.92 cm**-1
  16:       278.61 cm**-1
  17:       281.95 cm**-1
  18:       288.28 cm**-1
  19:       295.62 cm**-1
  20:       297.49 cm**-1
  21:       315.74 cm**-1
  22:       323.74 cm**-1
  23:       398.21 cm**-1
  24:       425.72 cm**-1
  25:       475.87 cm**-1
  26:       490.43 cm**-1
  27:       547.99 cm**-1
  28:       615.11 cm**-1
  29:       625.24 cm**-1
  30:       682.09 cm**-1
  31:       712.37 cm**-1
  32:       749.43 cm**-1
  33:       800.88 cm**-1
  34:       889.55 cm**-1
  35:       912.96 cm**-1
  36:       926.22 cm**-1
  37:       959.16 cm**-1
  38:       959.30 cm**-1
  39:       975.97 cm**-1
  40:       976.69 cm**-1
  41:       988.22 cm**-1
  42:      1067.87 cm**-1
  43:      1078.27 cm**-1
  44:      1089.34 cm**-1
  45:      1109.43 cm**-1
  46:      1143.84 cm**-1
  47:      1167.60 cm**-1
  48:      1180.28 cm**-1
  49:      1182.06 cm**-1
  50:      1210.55 cm**-1
  51:      1226.09 cm**-1
  52:      1235.03 cm**-1
  53:      1257.88 cm**-1
  54:      1345.96 cm**-1
  55:      1369.46 cm**-1
  56:      1369.77 cm**-1
  57:      1396.12 cm**-1
  58:      1407.51 cm**-1
  59:      1417.94 cm**-1
  60:      1418.11 cm**-1
  61:      1426.40 cm**-1
  62:      1430.12 cm**-1
  63:      1433.91 cm**-1
  64:      1438.78 cm**-1
  65:      1471.94 cm**-1
  66:      1472.62 cm**-1
  67:      1473.28 cm**-1
  68:      1476.70 cm**-1
  69:      1476.72 cm**-1
  70:      1486.90 cm**-1
  71:      1488.27 cm**-1
  72:      1488.42 cm**-1
  73:      1491.94 cm**-1
  74:      1492.18 cm**-1
  75:      1496.03 cm**-1
  76:      1499.09 cm**-1
  77:      1508.77 cm**-1
  78:      1526.75 cm**-1
  79:      1633.34 cm**-1
  80:      1712.19 cm**-1
  81:      3070.47 cm**-1
  82:      3070.53 cm**-1
  83:      3072.66 cm**-1
  84:      3072.70 cm**-1
  85:      3077.60 cm**-1
  86:      3078.95 cm**-1
  87:      3140.17 cm**-1
  88:      3140.19 cm**-1
  89:      3146.28 cm**-1
  90:      3146.43 cm**-1
  91:      3150.53 cm**-1
  92:      3150.62 cm**-1
  93:      3162.91 cm**-1
  94:      3162.96 cm**-1
  95:      3163.73 cm**-1
  96:      3163.73 cm**-1
  97:      3167.05 cm**-1
  98:      3167.17 cm**-1
  99:      3179.64 cm**-1
 100:      3184.55 cm**-1
 101:      3297.72 cm**-1

IR SPECTRUM
-----------

 Mode   freq       eps      Int      T**2         TX        TY        TZ
       cm**-1   L/(mol*cm) km/mol    a.u.
----------------------------------------------------------------------------
  6:     33.70   0.000096    0.48  0.000885  ( 0.029754  0.000001 -0.000001)
  7:     48.46   0.000000    0.00  0.000000  ( 0.000000 -0.000000  0.000000)
  8:     89.90   0.000084    0.42  0.000291  ( 0.017061 -0.000000 -0.000000)
  9:    103.81   0.000000    0.00  0.000000  (-0.000000  0.000000 -0.000000)
 10:    145.93   0.000015    0.08  0.000032  ( 0.000000 -0.000000  0.005674)
 11:    196.99   0.000000    0.00  0.000000  ( 0.000001 -0.000001 -0.000001)
 12:    205.87   0.000038    0.19  0.000057  ( 0.007560 -0.000000 -0.000000)
 13:    218.95   0.000000    0.00  0.000000  (-0.000001 -0.000000 -0.000001)
 14:    227.89   0.000000    0.00  0.000000  (-0.000000  0.000135 -0.000000)
 15:    275.92   0.000004    0.02  0.000005  ( 0.002204  0.000000  0.000000)
 16:    278.61   0.000000    0.00  0.000000  (-0.000000 -0.000000  0.000001)
 17:    281.95   0.000075    0.38  0.000083  ( 0.000001  0.000000  0.009127)
 18:    288.28   0.003464   17.50  0.003750  ( 0.061234  0.000001 -0.000000)
 19:    295.62   0.000012    0.06  0.000013  ( 0.000001  0.003615  0.000001)
 20:    297.49   0.000041    0.21  0.000043  (-0.000003  0.000001 -0.006554)
 21:    315.74   0.000145    0.73  0.000143  ( 0.000000  0.011975  0.000000)
 22:    323.74   0.000004    0.02  0.000004  (-0.000000 -0.000000  0.001912)
 23:    398.21   0.000109    0.55  0.000085  ( 0.009243  0.000001 -0.000000)
 24:    425.72   0.000200    1.01  0.000147  ( 0.000000 -0.012110 -0.000000)
 25:    475.87   0.000053    0.27  0.000035  (-0.000000 -0.000000  0.005919)
 26:    490.43   0.000000    0.00  0.000000  ( 0.000001 -0.000000  0.000001)
 27:    547.99   0.002272   11.48  0.001294  ( 0.000000  0.035972  0.000001)
 28:    615.11   0.001379    6.97  0.000700  (-0.000000  0.000000 -0.026453)
 29:    625.24   0.000459    2.32  0.000229  (-0.000000  0.015136  0.000000)
 30:    682.09   0.005471   27.65  0.002503  ( 0.050032 -0.000001 -0.000000)
 31:    712.37   0.000000    0.00  0.000000  ( 0.000002 -0.000001  0.000001)
 32:    749.43   0.000369    1.87  0.000154  (-0.000000 -0.000000  0.012400)
 33:    800.88   0.000205    1.03  0.000080  (-0.000000 -0.008933  0.000000)
 34:    889.55   0.003435   17.36  0.001205  ( 0.034715  0.000000  0.000000)
 35:    912.96   0.000011    0.06  0.000004  ( 0.000000  0.000000 -0.001954)
 36:    926.22   0.001112    5.62  0.000375  ( 0.000000 -0.019353 -0.000000)
 37:    959.16   0.000000    0.00  0.000000  (-0.000034  0.000000 -0.000000)
 38:    959.30   0.000960    4.85  0.000312  (-0.017669 -0.000000 -0.000000)
 39:    975.97   0.000000    0.00  0.000000  (-0.000003  0.000000 -0.000000)
 40:    976.69   0.000096    0.49  0.000031  ( 0.005547 -0.000000 -0.000000)
 41:    988.22   0.000075    0.38  0.000024  ( 0.000000 -0.000001  0.004872)
 42:   1067.87   0.000697    3.52  0.000204  ( 0.014267 -0.000000 -0.000000)
 43:   1078.27   0.000003    0.02  0.000001  ( 0.000000 -0.000999  0.000000)
 44:   1089.34   0.000000    0.00  0.000000  (-0.000000 -0.000001  0.000000)
 45:   1109.43   0.000844    4.26  0.000237  ( 0.000000 -0.000000 -0.015405)
 46:   1143.84   0.006385   32.27  0.001742  (-0.000000 -0.041737  0.000000)
 47:   1167.60   0.000204    1.03  0.000054  (-0.000000 -0.000000 -0.007382)
 48:   1180.28   0.000000    0.00  0.000000  ( 0.000001  0.000000 -0.000000)
 49:   1182.06   0.004920   24.86  0.001299  (-0.036041  0.000001  0.000000)
 50:   1210.55   0.000468    2.37  0.000121  (-0.000000 -0.010988 -0.000000)
 51:   1226.09   0.001937    9.79  0.000493  ( 0.000000  0.000000  0.022205)
 52:   1235.03   0.036099  182.43  0.009121  (-0.000000 -0.095506  0.000000)
 53:   1257.88   0.012491   63.12  0.003099  (-0.000000 -0.055667  0.000000)
 54:   1345.96   0.000789    3.99  0.000183  (-0.000000  0.000000  0.013525)
 55:   1369.46   0.000000    0.00  0.000000  (-0.000001  0.000000 -0.000000)
 56:   1369.77   0.000161    0.81  0.000037  ( 0.006056  0.000000 -0.000000)
 57:   1396.12   0.002706   13.68  0.000605  ( 0.000000 -0.024595 -0.000001)
 58:   1407.51   0.004894   24.73  0.001085  (-0.000000  0.000001 -0.032939)
 59:   1417.94   0.000000    0.00  0.000000  ( 0.000005  0.000000 -0.000001)
 60:   1418.11   0.007261   36.69  0.001598  ( 0.039973 -0.000000 -0.000000)
 61:   1426.40   0.001272    6.43  0.000278  ( 0.000001 -0.016681 -0.000001)
 62:   1430.12   0.002756   13.93  0.000601  (-0.000001  0.000000 -0.024523)
 63:   1433.91   0.002346   11.85  0.000510  (-0.000001 -0.022594 -0.000002)
 64:   1438.78   0.005972   30.18  0.001295  (-0.000001  0.000001 -0.035990)
 65:   1471.94   0.000000    0.00  0.000000  (-0.000030  0.000002 -0.000000)
 66:   1472.62   0.007248   36.63  0.001536  (-0.039190  0.000017  0.000000)
 67:   1473.28   0.005211   26.33  0.001104  ( 0.000020  0.033222 -0.000000)
 68:   1476.70   0.000064    0.32  0.000014  (-0.003686 -0.000001  0.000001)
 69:   1476.72   0.000000    0.00  0.000000  (-0.000056 -0.000000  0.000001)
 70:   1486.90   0.001433    7.24  0.000301  ( 0.000001  0.000000 -0.017342)
 71:   1488.27   0.000000    0.00  0.000000  ( 0.000004  0.000001 -0.000002)
 72:   1488.42   0.001226    6.20  0.000257  ( 0.016032 -0.000001  0.000002)
 73:   1491.94   0.002252   11.38  0.000471  ( 0.000000  0.021703 -0.000010)
 74:   1492.18   0.009398   47.49  0.001965  (-0.000001  0.000005  0.044333)
 75:   1496.03   0.001807    9.13  0.000377  ( 0.000000 -0.019417 -0.000001)
 76:   1499.09   0.000772    3.90  0.000161  ( 0.000000 -0.000001 -0.012680)
 77:   1508.77   0.000048    0.24  0.000010  (-0.000000  0.003152  0.000000)
 78:   1526.75   0.000667    3.37  0.000136  (-0.000000  0.000000  0.011674)
 79:   1633.34   0.031466  159.02  0.006012  (-0.000000  0.077536  0.000000)
 80:   1712.19   0.006584   33.27  0.001200  (-0.000000  0.000000 -0.034640)
 81:   3070.47   0.007802   39.43  0.000793  ( 0.028158  0.000000  0.000001)
 82:   3070.53   0.000000    0.00  0.000000  (-0.000025  0.000000  0.000002)
 83:   3072.66   0.000179    0.90  0.000018  (-0.000003  0.004261  0.000019)
 84:   3072.70   0.003967   20.05  0.000403  (-0.000001 -0.000004  0.020071)
 85:   3077.60   0.003836   19.38  0.000389  (-0.000000 -0.019721 -0.000001)
 86:   3078.95   0.001751    8.85  0.000177  (-0.000000 -0.000002  0.013323)
 87:   3140.17   0.001300    6.57  0.000129  ( 0.000000  0.000143 -0.011367)
 88:   3140.19   0.000613    3.10  0.000061  ( 0.000001  0.007799  0.000210)
 89:   3146.28   0.003493   17.65  0.000346  (-0.018614  0.000000  0.000000)
 90:   3146.43   0.000000    0.00  0.000000  ( 0.000001  0.000000  0.000000)
 91:   3150.53   0.003536   17.87  0.000350  ( 0.018714  0.000000 -0.000000)
 92:   3150.62   0.000000    0.00  0.000000  (-0.000003  0.000000 -0.000001)
 93:   3162.91   0.000997    5.04  0.000098  ( 0.000004  0.009914 -0.000183)
 94:   3162.96   0.012436   62.85  0.001227  ( 0.000000 -0.000050 -0.035029)
 95:   3163.73   0.003853   19.47  0.000380  (-0.019494  0.000006 -0.000001)
 96:   3163.73   0.000001    0.01  0.000000  ( 0.000335 -0.000001  0.000009)
 97:   3167.05   0.016594   83.86  0.001635  (-0.000002 -0.040436 -0.000003)
 98:   3167.17   0.000055    0.28  0.000005  (-0.000000  0.000033 -0.002331)
 99:   3179.64   0.001865    9.43  0.000183  ( 0.000000 -0.013530 -0.000001)
100:   3184.55   0.001987   10.04  0.000195  (-0.000000  0.000000 -0.013953)
101:   3297.72   0.009207   46.53  0.000871  (-0.000000  0.000000  0.029518)

--------------------------
THERMOCHEMISTRY AT 298.15K
--------------------------

Temperature         ... 298.15 K
Pressure            ... 1.00 atm
Total Mass          ... 181.30 AMU

Throughout the following assumptions are being made:
  (1) The electronic state is orbitally nondegenerate
  (2) There are no thermally accessible electronically excited states
  (3) Hindered rotations indicated by low frequency modes are not
      treated as such but are treated as vibrations and this may
      cause some error
  (4) All equations used are the standard statistical mechanics
      equations for an ideal gas
  (5) All vibrations are strictly harmonic

freq.      33.70  E(vib)   ...       0.55
freq.      48.46  E(vib)   ...       0.53
freq.      89.90  E(vib)   ...       0.47
freq.     103.81  E(vib)   ...       0.46
freq.     145.93  E(vib)   ...       0.41
freq.     196.99  E(vib)   ...       0.35
freq.     205.87  E(vib)   ...       0.35
freq.     218.95  E(vib)   ...       0.33
freq.     227.89  E(vib)   ...       0.33
freq.     275.92  E(vib)   ...       0.28
freq.     278.61  E(vib)   ...       0.28
freq.     281.95  E(vib)   ...       0.28
freq.     288.28  E(vib)   ...       0.27
freq.     295.62  E(vib)   ...       0.27
freq.     297.49  E(vib)   ...       0.27
freq.     315.74  E(vib)   ...       0.25
freq.     323.74  E(vib)   ...       0.25
freq.     398.21  E(vib)   ...       0.20
freq.     425.72  E(vib)   ...       0.18
freq.     475.87  E(vib)   ...       0.15
freq.     490.43  E(vib)   ...       0.15
freq.     547.99  E(vib)   ...       0.12
freq.     615.11  E(vib)   ...       0.10
freq.     625.24  E(vib)   ...       0.09
freq.     682.09  E(vib)   ...       0.08
freq.     712.37  E(vib)   ...       0.07
freq.     749.43  E(vib)   ...       0.06
freq.     800.88  E(vib)   ...       0.05
freq.     889.55  E(vib)   ...       0.04
freq.     912.96  E(vib)   ...       0.03
freq.     926.22  E(vib)   ...       0.03
freq.     959.16  E(vib)   ...       0.03
freq.     959.30  E(vib)   ...       0.03
freq.     975.97  E(vib)   ...       0.03
freq.     976.69  E(vib)   ...       0.03
freq.     988.22  E(vib)   ...       0.02
freq.    1067.87  E(vib)   ...       0.02
freq.    1078.27  E(vib)   ...       0.02
freq.    1089.34  E(vib)   ...       0.02
freq.    1109.43  E(vib)   ...       0.02
freq.    1143.84  E(vib)   ...       0.01
freq.    1167.60  E(vib)   ...       0.01
freq.    1180.28  E(vib)   ...       0.01
freq.    1182.06  E(vib)   ...       0.01
freq.    1210.55  E(vib)   ...       0.01
freq.    1226.09  E(vib)   ...       0.01
freq.    1235.03  E(vib)   ...       0.01
freq.    1257.88  E(vib)   ...       0.01
freq.    1345.96  E(vib)   ...       0.01
freq.    1369.46  E(vib)   ...       0.01
freq.    1369.77  E(vib)   ...       0.01
freq.    1396.12  E(vib)   ...       0.00
freq.    1407.51  E(vib)   ...       0.00
freq.    1417.94  E(vib)   ...       0.00
freq.    1418.11  E(vib)   ...       0.00
freq.    1426.40  E(vib)   ...       0.00
freq.    1430.12  E(vib)   ...       0.00
freq.    1433.91  E(vib)   ...       0.00
freq.    1438.78  E(vib)   ...       0.00
freq.    1471.94  E(vib)   ...       0.00
freq.    1472.62  E(vib)   ...       0.00
freq.    1473.28  E(vib)   ...       0.00
freq.    1476.70  E(vib)   ...       0.00
freq.    1476.72  E(vib)   ...       0.00
freq.    1486.90  E(vib)   ...       0.00
freq.    1488.27  E(vib)   ...       0.00
freq.    1488.42  E(vib)   ...       0.00
freq.    1491.94  E(vib)   ...       0.00
freq.    1492.18  E(vib)   ...       0.00
freq.    1496.03  E(vib)   ...       0.00
freq.    1499.09  E(vib)   ...       0.00
freq.    1508.77  E(vib)   ...       0.00
freq.    1526.75  E(vib)   ...       0.00
freq.    1633.34  E(vib)   ...       0.00
freq.    1712.19  E(vib)   ...       0.00
freq.    3070.47  E(vib)   ...       0.00
freq.    3070.53  E(vib)   ...       0.00
freq.    3072.66  E(vib)   ...       0.00
freq.    3072.70  E(vib)   ...       0.00
freq.    3077.60  E(vib)   ...       0.00
freq.    3078.95  E(vib)   ...       0.00
freq.    3140.17  E(vib)   ...       0.00
freq.    3140.19  E(vib)   ...       0.00
freq.    3146.28  E(vib)   ...       0.00
freq.    3146.43  E(vib)   ...       0.00
freq.    3150.53  E(vib)   ...       0.00
freq.    3150.62  E(vib)   ...       0.00
freq.    3162.91  E(vib)   ...       0.00
freq.    3162.96  E(vib)   ...       0.00
freq.    3163.73  E(vib)   ...       0.00
freq.    3163.73  E(vib)   ...       0.00
freq.    3167.05  E(vib)   ...       0.00
freq.    3167.17  E(vib)   ...       0.00
freq.    3179.64  E(vib)   ...       0.00
freq.    3184.55  E(vib)   ...       0.00
freq.    3297.72  E(vib)   ...       0.00

------------
INNER ENERGY
------------

The inner energy is: U= E(el) + E(ZPE) + E(vib) + E(rot) + E(trans)
    E(el)   - is the total energy from the electronic structure calculation
              = E(kin-el) + E(nuc-el) + E(el-el) + E(nuc-nuc)
    E(ZPE)  - the the zero temperature vibrational energy from the frequency calculation
    E(vib)  - the the finite temperature correction to E(ZPE) due to population
              of excited vibrational states
    E(rot)  - is the rotational thermal energy
    E(trans)- is the translational thermal energy

Summary of contributions to the inner energy U:
Electronic energy                ...   -541.27720851 Eh
Zero point energy                ...      0.31280220 Eh     196.29 kcal/mol
Thermal vibrational correction   ...      0.01214523 Eh       7.62 kcal/mol
Thermal rotational correction    ...      0.00141627 Eh       0.89 kcal/mol
Thermal translational correction ...      0.00141627 Eh       0.89 kcal/mol
-----------------------------------------------------------------------
Total thermal energy                   -540.94942853 Eh

Summary of corrections to the electronic energy:
(perhaps to be used in another calculation)
Total thermal correction                  0.01497778 Eh       9.40 kcal/mol
Non-thermal (ZPE) correction              0.31280220 Eh     196.29 kcal/mol
-----------------------------------------------------------------------
Total correction                          0.32777998 Eh     205.68 kcal/mol

--------
ENTHALPY
--------

The enthalpy is H = U + kB*T
                kB is Boltzmann's constant
Total free energy                 ...   -540.94942853 Eh
Thermal Enthalpy correction       ...      0.00094421 Eh       0.59 kcal/mol
-----------------------------------------------------------------------
Total Enthalpy                    ...   -540.94848433 Eh

Note: Rotational entropy computed according to Herzberg
Infrared and Raman Spectra, Chapter V,1, Van Nostrand Reinhold, 1945
Point Group:  C2v, Symmetry Number:   2
Rotational constants in cm-1:     0.035461     0.019321     0.015014

                             ****ORCA TERMINATED NORMALLY****
TOTAL RUN TIME: 0 days 1 hours 22 minutes 54 seconds 541 msec
