                         Program Version 5.0.4 -  RELEASE  -
|  1> # ORCA 5.0.4 - /users/bwb16179/postgrad/2024_06/pKa_Reviewer_Comments/Aq_Z=1/7_prot.inp # write input file
|  2> # Basic Mode
|  3> #
|  4> ! Opt Freq wB97X Def2-TZVP D4 SlowConv TightSCF Defgrid2 Def2/J RIJCOSX CPCM(Water)
|  5>
|  6> %PAL NPROCS 4 END
|  7>
|  8> %maxcore 4500
|  9>
| 10> %geom
| 11> Maxiter 150
| 12> END
| 13>
| 14> * xyzfile 1 1 7_prot.xyz
| 15>
| 16>                          ****END OF INPUT****
 Total Charge           Charge          ....    1
 Multiplicity           Mult            ....    1
 Number of Electrons    NEL             ....  116
Dispersion correction           -0.005735308
FINAL SINGLE POINT ENERGY      -688.840165130410
Dispersion correction            ... Starting D4
Dispersion correction           -0.005757864
FINAL SINGLE POINT ENERGY      -688.841888793576
Dispersion correction            ... Starting D4
Dispersion correction           -0.005759653
FINAL SINGLE POINT ENERGY      -688.841902938156
Dispersion correction            ... Starting D4
                    ***********************HURRAY********************

CARTESIAN COORDINATES (ANGSTROEM)
---------------------------------
  C      0.006758    0.674763   -1.863189
  C     -0.006759   -0.674762   -1.863188
  H      0.005956    1.383214   -2.674098
  H     -0.005953   -1.383213   -2.674098
  C      0.006626    2.432059   -0.073895
  C     -0.896079    2.807003    0.906901
  C      0.910596    3.331432   -0.614751
  C     -0.881247    4.115407    1.364720
  H     -1.608084    2.089691    1.297801
  C      0.906783    4.639295   -0.156608
  H      1.614849    3.009878   -1.372871
  C      0.015764    5.031026    0.833372
  H     -1.582450    4.419583    2.131960
  H      1.611156    5.351268   -0.568876
  H      0.019698    6.053413    1.191405
  C     -0.006631   -2.432058   -0.073894
  C      0.896076   -2.807000    0.906901
  C     -0.910596   -3.331435   -0.614751
  C      0.881249   -4.115404    1.364720
  H      1.608078   -2.089685    1.297801
  C     -0.906778   -4.639298   -0.156609
  H     -1.614851   -3.009883   -1.372871
  C     -0.015757   -5.031027    0.833371
  H      1.582453   -4.419578    2.131960
  H     -1.611149   -5.351273   -0.568878
  H     -0.019688   -6.053414    1.191404
  C     -0.000006    0.000000    0.231784
  H     -0.000007    0.000001    1.310921
  N      0.008216    1.077186   -0.543481
  N     -0.008223   -1.077186   -0.543481

 Multiplicity           Mult            ....    1
 Number of Electrons    NEL             ....  116
 Basis Dimension        Dim             ....  605

ORBITAL ENERGIES
----------------

  NO   OCC          E(Eh)            E(eV)
   0   2.0000     -14.513847      -394.9418
   1   2.0000     -14.513822      -394.9412
   2   2.0000     -10.378865      -282.4233
   3   2.0000     -10.330330      -281.1026
   4   2.0000     -10.330324      -281.1024
   5   2.0000     -10.326875      -281.0085
   6   2.0000     -10.326118      -280.9880
   7   2.0000     -10.281667      -279.7784
   8   2.0000     -10.281667      -279.7784
   9   2.0000     -10.281342      -279.7696
  10   2.0000     -10.281342      -279.7695
  11   2.0000     -10.275160      -279.6013
  12   2.0000     -10.275160      -279.6013
  13   2.0000     -10.275080      -279.5991
  14   2.0000     -10.275080      -279.5991
  15   2.0000     -10.273055      -279.5440
  16   2.0000     -10.273055      -279.5440
  17   2.0000      -1.237902       -33.6850
  18   2.0000      -1.123608       -30.5749
  19   2.0000      -1.023985       -27.8640
  20   2.0000      -1.005963       -27.3736
  21   2.0000      -0.951435       -25.8899
  22   2.0000      -0.922724       -25.1086
  23   2.0000      -0.901426       -24.5291
  24   2.0000      -0.898446       -24.4480
  25   2.0000      -0.890172       -24.2228
  26   2.0000      -0.814079       -22.1522
  27   2.0000      -0.799019       -21.7424
  28   2.0000      -0.756324       -20.5806
  29   2.0000      -0.752195       -20.4683
  30   2.0000      -0.737245       -20.0615
  31   2.0000      -0.736830       -20.0502
  32   2.0000      -0.702539       -19.1171
  33   2.0000      -0.668861       -18.2006
  34   2.0000      -0.638314       -17.3694
  35   2.0000      -0.630837       -17.1659
  36   2.0000      -0.613340       -16.6898
  37   2.0000      -0.607315       -16.5259
  38   2.0000      -0.592560       -16.1244
  39   2.0000      -0.589850       -16.0506
  40   2.0000      -0.584558       -15.9066
  41   2.0000      -0.567775       -15.4499
  42   2.0000      -0.559807       -15.2331
  43   2.0000      -0.557949       -15.1826
  44   2.0000      -0.549167       -14.9436
  45   2.0000      -0.547901       -14.9091
  46   2.0000      -0.521778       -14.1983
  47   2.0000      -0.508234       -13.8297
  48   2.0000      -0.480165       -13.0659
  49   2.0000      -0.476990       -12.9796
  50   2.0000      -0.476170       -12.9572
  51   2.0000      -0.465458       -12.6657
  52   2.0000      -0.452062       -12.3012
  53   2.0000      -0.391260       -10.6467
  54   2.0000      -0.369269       -10.0483
  55   2.0000      -0.368942       -10.0394
  56   2.0000      -0.366649        -9.9770
  57   2.0000      -0.357342        -9.7238
  58   0.0000       0.021324         0.5803
  59   0.0000       0.044881         1.2213
  60   0.0000       0.048948         1.3319
  61   0.0000       0.049102         1.3361
  62   0.0000       0.075379         2.0512

MULLIKEN ATOMIC CHARGES
-----------------------
   0 C :   -0.106316
   1 C :   -0.106427
   2 H :    0.252266
   3 H :    0.252257
   4 C :    0.231157
   5 C :   -0.302802
   6 C :   -0.302703
   7 C :   -0.104125
   8 H :    0.200960
   9 C :   -0.105588
  10 H :    0.199156
  11 C :   -0.166309
  12 H :    0.175930
  13 H :    0.175828
  14 H :    0.174341
  15 C :    0.231392
  16 C :   -0.302970
  17 C :   -0.302850
  18 C :   -0.103876
  19 H :    0.200934
  20 C :   -0.105367
  21 H :    0.199140
  22 C :   -0.166568
  23 H :    0.175940
  24 H :    0.175845
  25 H :    0.174265
  26 C :    0.119176
  27 H :    0.291828
  28 N :   -0.027267
  29 N :   -0.027248
Sum of atomic charges:    1.0000000

LOEWDIN ATOMIC CHARGES
----------------------
   0 C :   -0.128048
   1 C :   -0.128049
   2 H :    0.169081
   3 H :    0.169082
   4 C :   -0.151667
   5 C :   -0.096399
   6 C :   -0.095238
   7 C :   -0.124111
   8 H :    0.165992
   9 C :   -0.123983
  10 H :    0.165871
  11 C :   -0.126141
  12 H :    0.158853
  13 H :    0.158812
  14 H :    0.157266
  15 C :   -0.151667
  16 C :   -0.096400
  17 C :   -0.095239
  18 C :   -0.124111
  19 H :    0.165992
  20 C :   -0.123981
  21 H :    0.165871
  22 C :   -0.126142
  23 H :    0.158853
  24 H :    0.158812
  25 H :    0.157267
  26 C :   -0.095925
  27 H :    0.181354
  28 N :    0.326998
  29 N :    0.326998

  Mayer bond orders larger than 0.100000
B(  0-C ,  1-C ) :   1.7250 B(  0-C ,  2-H ) :   0.9153 B(  0-C , 28-N ) :   1.1248
B(  1-C ,  3-H ) :   0.9153 B(  1-C , 29-N ) :   1.1248 B(  4-C ,  5-C ) :   1.3654
B(  4-C ,  6-C ) :   1.3659 B(  4-C , 28-N ) :   0.9115 B(  5-C ,  7-C ) :   1.4353
B(  5-C ,  8-H ) :   0.9539 B(  6-C ,  9-C ) :   1.4431 B(  6-C , 10-H ) :   0.9564
B(  7-C , 11-C ) :   1.3927 B(  7-C , 12-H ) :   0.9738 B(  9-C , 11-C ) :   1.3881
B(  9-C , 13-H ) :   0.9741 B( 11-C , 14-H ) :   0.9722 B( 15-C , 16-C ) :   1.3654
B( 15-C , 17-C ) :   1.3660 B( 15-C , 29-N ) :   0.9114 B( 16-C , 18-C ) :   1.4352
B( 16-C , 19-H ) :   0.9541 B( 17-C , 20-C ) :   1.4430 B( 17-C , 21-H ) :   0.9565
B( 18-C , 22-C ) :   1.3925 B( 18-C , 23-H ) :   0.9738 B( 20-C , 22-C ) :   1.3878
B( 20-C , 24-H ) :   0.9741 B( 22-C , 25-H ) :   0.9725 B( 26-C , 27-H ) :   0.8883
B( 26-C , 28-N ) :   1.3618 B( 26-C , 29-N ) :   1.3619

Dispersion correction           -0.005759476
FINAL SINGLE POINT ENERGY      -688.841902036154

DIPOLE MOMENT
-------------
                                X             Y             Z
Electronic contribution:     -0.00002       0.00000      -1.87249
Nuclear contribution   :      0.00002      -0.00000       1.32120
                        -----------------------------------------
Total Dipole Moment    :     -0.00000       0.00000      -0.55129
                        -----------------------------------------
Magnitude (a.u.)       :      0.55129
Magnitude (Debye)      :      1.40126

Dispersion correction in the Hessian             ... Starting D4

VIBRATIONAL FREQUENCIES
-----------------------

Scaling factor for frequencies =  1.000000000  (already applied!)

   0:         0.00 cm**-1
   1:         0.00 cm**-1
   2:         0.00 cm**-1
   3:         0.00 cm**-1
   4:         0.00 cm**-1
   5:         0.00 cm**-1
   6:        26.94 cm**-1
   7:        44.54 cm**-1
   8:        66.97 cm**-1
   9:        87.47 cm**-1
  10:       129.59 cm**-1
  11:       144.52 cm**-1
  12:       251.37 cm**-1
  13:       306.35 cm**-1
  14:       316.35 cm**-1
  15:       410.41 cm**-1
  16:       424.58 cm**-1
  17:       424.81 cm**-1
  18:       432.48 cm**-1
  19:       448.28 cm**-1
  20:       536.33 cm**-1
  21:       571.53 cm**-1
  22:       627.70 cm**-1
  23:       628.55 cm**-1
  24:       673.79 cm**-1
  25:       675.24 cm**-1
  26:       695.21 cm**-1
  27:       721.63 cm**-1
  28:       721.92 cm**-1
  29:       722.28 cm**-1
  30:       769.12 cm**-1
  31:       799.84 cm**-1
  32:       801.80 cm**-1
  33:       876.41 cm**-1
  34:       876.63 cm**-1
  35:       903.37 cm**-1
  36:       914.62 cm**-1
  37:       971.49 cm**-1
  38:       972.44 cm**-1
  39:       982.61 cm**-1
  40:       993.06 cm**-1
  41:      1027.50 cm**-1
  42:      1027.53 cm**-1
  43:      1030.76 cm**-1
  44:      1031.64 cm**-1
  45:      1053.08 cm**-1
  46:      1053.09 cm**-1
  47:      1063.62 cm**-1
  48:      1064.76 cm**-1
  49:      1101.73 cm**-1
  50:      1116.95 cm**-1
  51:      1120.36 cm**-1
  52:      1129.04 cm**-1
  53:      1144.09 cm**-1
  54:      1176.44 cm**-1
  55:      1176.54 cm**-1
  56:      1203.84 cm**-1
  57:      1203.98 cm**-1
  58:      1277.00 cm**-1
  59:      1290.81 cm**-1
  60:      1309.09 cm**-1
  61:      1319.35 cm**-1
  62:      1357.09 cm**-1
  63:      1363.46 cm**-1
  64:      1396.19 cm**-1
  65:      1412.16 cm**-1
  66:      1464.25 cm**-1
  67:      1512.65 cm**-1
  68:      1514.54 cm**-1
  69:      1547.91 cm**-1
  70:      1558.95 cm**-1
  71:      1627.93 cm**-1
  72:      1634.79 cm**-1
  73:      1683.35 cm**-1
  74:      1686.58 cm**-1
  75:      1686.80 cm**-1
  76:      1688.21 cm**-1
  77:      3213.83 cm**-1
  78:      3213.85 cm**-1
  79:      3219.78 cm**-1
  80:      3219.79 cm**-1
  81:      3224.90 cm**-1
  82:      3224.90 cm**-1
  83:      3232.09 cm**-1
  84:      3232.10 cm**-1
  85:      3238.47 cm**-1
  86:      3238.48 cm**-1
  87:      3298.62 cm**-1
  88:      3306.41 cm**-1
  89:      3323.68 cm**-1

IR SPECTRUM
-----------

 Mode   freq       eps      Int      T**2         TX        TY        TZ
       cm**-1   L/(mol*cm) km/mol    a.u.
----------------------------------------------------------------------------
  6:     26.94   0.000021    0.11  0.000247  ( 0.000000  0.000000 -0.015716)
  7:     44.54   0.000071    0.36  0.000496  (-0.020708  0.008176 -0.000001)
  8:     66.97   0.000083    0.42  0.000387  (-0.000000  0.000000  0.019662)
  9:     87.47   0.000114    0.58  0.000406  ( 0.004493 -0.019649 -0.000001)
 10:    129.59   0.000088    0.45  0.000213  (-0.000000  0.000000 -0.014588)
 11:    144.52   0.000119    0.60  0.000257  (-0.015860 -0.002244  0.000000)
 12:    251.37   0.000049    0.25  0.000060  (-0.000000 -0.000000 -0.007760)
 13:    306.35   0.000226    1.14  0.000230  ( 0.000000  0.000000  0.015161)
 14:    316.35   0.000085    0.43  0.000084  ( 0.007926  0.004601 -0.000000)
 15:    410.41   0.000263    1.33  0.000200  ( 0.008643 -0.011186 -0.000000)
 16:    424.58   0.000069    0.35  0.000050  (-0.000004  0.000001  0.007106)
 17:    424.81   0.000133    0.67  0.000098  ( 0.009019 -0.004039  0.000003)
 18:    432.48   0.000024    0.12  0.000017  ( 0.000000 -0.000000  0.004181)
 19:    448.28   0.000913    4.61  0.000636  (-0.023388 -0.009415 -0.000000)
 20:    536.33   0.005321   26.89  0.003096  (-0.000000 -0.000000  0.055641)
 21:    571.53   0.003549   17.94  0.001938  (-0.039490  0.019453 -0.000001)
 22:    627.70   0.001054    5.32  0.000524  ( 0.021938  0.006522  0.000000)
 23:    628.55   0.000125    0.63  0.000062  ( 0.000002  0.000001 -0.007864)
 24:    673.79   0.001611    8.14  0.000746  (-0.000006 -0.000001 -0.027319)
 25:    675.24   0.005350   27.04  0.002473  ( 0.048626  0.010393 -0.000004)
 26:    695.21   0.000166    0.84  0.000075  ( 0.000000 -0.000000  0.008639)
 27:    721.63   0.013929   70.39  0.006024  ( 0.000249 -0.000078 -0.077612)
 28:    721.92   0.016548   83.63  0.007153  (-0.081634  0.022115 -0.000239)
 29:    722.28   0.003768   19.04  0.001628  (-0.006813 -0.039768  0.000020)
 30:    769.12   0.014131   71.41  0.005734  ( 0.075664 -0.002919  0.000001)
 31:    799.84   0.013219   66.80  0.005157  ( 0.000050 -0.000020 -0.071814)
 32:    801.80   0.017369   87.78  0.006760  (-0.076309  0.030614 -0.000044)
 33:    876.41   0.000265    1.34  0.000094  (-0.009714 -0.000194  0.000011)
 34:    876.63   0.000048    0.24  0.000017  ( 0.000022  0.000000  0.004151)
 35:    903.37   0.006690   33.81  0.002311  (-0.048054 -0.001428  0.000000)
 36:    914.62   0.000013    0.07  0.000005  ( 0.000001 -0.000000 -0.002121)
 37:    971.49   0.001546    7.81  0.000497  (-0.000013  0.000013  0.022285)
 38:    972.44   0.001452    7.34  0.000466  ( 0.014938 -0.015584  0.000019)
 39:    982.61   0.001761    8.90  0.000559  ( 0.002610  0.023504  0.000000)
 40:    993.06   0.000038    0.19  0.000012  ( 0.000000 -0.000000 -0.003437)
 41:   1027.50   0.000217    1.10  0.000066  (-0.005338  0.006122  0.000217)
 42:   1027.53   0.000044    0.22  0.000013  (-0.000319  0.000366 -0.003630)
 43:   1030.76   0.001288    6.51  0.000390  ( 0.001828  0.019666 -0.000000)
 44:   1031.64   0.000098    0.50  0.000030  ( 0.000001  0.000002  0.005451)
 45:   1053.08   0.000033    0.17  0.000010  (-0.000352  0.000256  0.003080)
 46:   1053.09   0.000010    0.05  0.000003  ( 0.001111 -0.000804  0.000984)
 47:   1063.62   0.000334    1.69  0.000098  (-0.000001 -0.000005  0.009901)
 48:   1064.76   0.001835    9.27  0.000538  ( 0.002663  0.023037  0.000003)
 49:   1101.73   0.016102   81.37  0.004561  (-0.008310 -0.067021 -0.000000)
 50:   1116.95   0.000549    2.78  0.000154  (-0.000003  0.000002 -0.012390)
 51:   1120.36   0.003724   18.82  0.001037  ( 0.030646 -0.009900 -0.000001)
 52:   1129.04   0.005460   27.59  0.001509  (-0.000000 -0.000000  0.038848)
 53:   1144.09   0.000428    2.16  0.000117  (-0.000000 -0.000000 -0.010800)
 54:   1176.44   0.000024    0.12  0.000006  (-0.000008 -0.000003 -0.002522)
 55:   1176.54   0.000074    0.37  0.000020  (-0.004116 -0.001644  0.000005)
 56:   1203.84   0.000008    0.04  0.000002  (-0.001422  0.000231  0.000002)
 57:   1203.98   0.000002    0.01  0.000001  ( 0.000004 -0.000001  0.000721)
 58:   1277.00   0.012556   63.45  0.003068  (-0.002708  0.055326  0.000000)
 59:   1290.81   0.010313   52.12  0.002493  ( 0.001375  0.049914  0.000000)
 60:   1309.09   0.000169    0.85  0.000040  (-0.000000  0.000000  0.006344)
 61:   1319.35   0.001638    8.28  0.000387  (-0.018577 -0.006505 -0.000000)
 62:   1357.09   0.001074    5.43  0.000247  ( 0.000001  0.000001  0.015717)
 63:   1363.46   0.000615    3.11  0.000141  ( 0.005174  0.010675 -0.000001)
 64:   1396.19   0.001521    7.69  0.000340  ( 0.000000 -0.000000 -0.018438)
 65:   1412.16   0.002560   12.94  0.000566  ( 0.007594  0.022538 -0.000000)
 66:   1464.25   0.000254    1.28  0.000054  ( 0.000000  0.000000 -0.007359)
 67:   1512.65   0.002192   11.08  0.000452  (-0.020109 -0.006919 -0.000002)
 68:   1514.54   0.001215    6.14  0.000250  ( 0.000002  0.000001 -0.015824)
 69:   1547.91   0.014013   70.82  0.002825  (-0.000628  0.053148 -0.000000)
 70:   1558.95   0.003460   17.48  0.000693  (-0.000000  0.000001  0.026316)
 71:   1627.93   0.076613  387.17  0.014686  (-0.000558 -0.121186 -0.000000)
 72:   1634.79   0.000214    1.08  0.000041  ( 0.000000 -0.000000  0.006398)
 73:   1683.35   0.001897    9.58  0.000352  (-0.016269 -0.009322  0.000000)
 74:   1686.58   0.006050   30.58  0.001119  ( 0.000555 -0.033454 -0.000003)
 75:   1686.80   0.001598    8.08  0.000296  ( 0.000000 -0.000004  0.017196)
 76:   1688.21   0.000206    1.04  0.000038  (-0.000000 -0.000002  0.006171)
 77:   3213.83   0.000119    0.60  0.000012  (-0.000435 -0.003371 -0.000005)
 78:   3213.85   0.000001    0.00  0.000000  (-0.000008 -0.000058  0.000304)
 79:   3219.78   0.000587    2.96  0.000057  ( 0.007408  0.001407  0.000006)
 80:   3219.79   0.000519    2.62  0.000050  ( 0.000006  0.000001 -0.007093)
 81:   3224.90   0.001740    8.79  0.000168  (-0.000822 -0.012798 -0.001969)
 82:   3224.90   0.000643    3.25  0.000062  ( 0.000451  0.007010 -0.003594)
 83:   3232.09   0.000758    3.83  0.000073  (-0.008246 -0.002275  0.000052)
 84:   3232.10   0.000484    2.45  0.000047  ( 0.000063  0.000017  0.006839)
 85:   3238.47   0.001517    7.66  0.000146  (-0.000102  0.012088  0.000075)
 86:   3238.48   0.000165    0.83  0.000016  ( 0.000002 -0.000227  0.003980)
 87:   3298.62   0.014176   71.64  0.001341  ( 0.000000  0.000000 -0.036622)
 88:   3306.41   0.006213   31.40  0.000586  ( 0.000630  0.024207  0.000000)
 89:   3323.68   0.003636   18.38  0.000341  ( 0.000000 -0.000000  0.018478)

--------------------------
THERMOCHEMISTRY AT 298.15K
--------------------------

Temperature         ... 298.15 K
Pressure            ... 1.00 atm
Total Mass          ... 221.28 AMU

Throughout the following assumptions are being made:
  (1) The electronic state is orbitally nondegenerate
  (2) There are no thermally accessible electronically excited states
  (3) Hindered rotations indicated by low frequency modes are not
      treated as such but are treated as vibrations and this may
      cause some error
  (4) All equations used are the standard statistical mechanics
      equations for an ideal gas
  (5) All vibrations are strictly harmonic

freq.      26.94  E(vib)   ...       0.55
freq.      44.54  E(vib)   ...       0.53
freq.      66.97  E(vib)   ...       0.50
freq.      87.47  E(vib)   ...       0.48
freq.     129.59  E(vib)   ...       0.43
freq.     144.52  E(vib)   ...       0.41
freq.     251.37  E(vib)   ...       0.30
freq.     306.35  E(vib)   ...       0.26
freq.     316.35  E(vib)   ...       0.25
freq.     410.41  E(vib)   ...       0.19
freq.     424.58  E(vib)   ...       0.18
freq.     424.81  E(vib)   ...       0.18
freq.     432.48  E(vib)   ...       0.18
freq.     448.28  E(vib)   ...       0.17
freq.     536.33  E(vib)   ...       0.12
freq.     571.53  E(vib)   ...       0.11
freq.     627.70  E(vib)   ...       0.09
freq.     628.55  E(vib)   ...       0.09
freq.     673.79  E(vib)   ...       0.08
freq.     675.24  E(vib)   ...       0.08
freq.     695.21  E(vib)   ...       0.07
freq.     721.63  E(vib)   ...       0.07
freq.     721.92  E(vib)   ...       0.07
freq.     722.28  E(vib)   ...       0.07
freq.     769.12  E(vib)   ...       0.06
freq.     799.84  E(vib)   ...       0.05
freq.     801.80  E(vib)   ...       0.05
freq.     876.41  E(vib)   ...       0.04
freq.     876.63  E(vib)   ...       0.04
freq.     903.37  E(vib)   ...       0.03
freq.     914.62  E(vib)   ...       0.03
freq.     971.49  E(vib)   ...       0.03
freq.     972.44  E(vib)   ...       0.03
freq.     982.61  E(vib)   ...       0.02
freq.     993.06  E(vib)   ...       0.02
freq.    1027.50  E(vib)   ...       0.02
freq.    1027.53  E(vib)   ...       0.02
freq.    1030.76  E(vib)   ...       0.02
freq.    1031.64  E(vib)   ...       0.02
freq.    1053.08  E(vib)   ...       0.02
freq.    1053.09  E(vib)   ...       0.02
freq.    1063.62  E(vib)   ...       0.02
freq.    1064.76  E(vib)   ...       0.02
freq.    1101.73  E(vib)   ...       0.02
freq.    1116.95  E(vib)   ...       0.01
freq.    1120.36  E(vib)   ...       0.01
freq.    1129.04  E(vib)   ...       0.01
freq.    1144.09  E(vib)   ...       0.01
freq.    1176.44  E(vib)   ...       0.01
freq.    1176.54  E(vib)   ...       0.01
freq.    1203.84  E(vib)   ...       0.01
freq.    1203.98  E(vib)   ...       0.01
freq.    1277.00  E(vib)   ...       0.01
freq.    1290.81  E(vib)   ...       0.01
freq.    1309.09  E(vib)   ...       0.01
freq.    1319.35  E(vib)   ...       0.01
freq.    1357.09  E(vib)   ...       0.01
freq.    1363.46  E(vib)   ...       0.01
freq.    1396.19  E(vib)   ...       0.00
freq.    1412.16  E(vib)   ...       0.00
freq.    1464.25  E(vib)   ...       0.00
freq.    1512.65  E(vib)   ...       0.00
freq.    1514.54  E(vib)   ...       0.00
freq.    1547.91  E(vib)   ...       0.00
freq.    1558.95  E(vib)   ...       0.00
freq.    1627.93  E(vib)   ...       0.00
freq.    1634.79  E(vib)   ...       0.00
freq.    1683.35  E(vib)   ...       0.00
freq.    1686.58  E(vib)   ...       0.00
freq.    1686.80  E(vib)   ...       0.00
freq.    1688.21  E(vib)   ...       0.00
freq.    3213.83  E(vib)   ...       0.00
freq.    3213.85  E(vib)   ...       0.00
freq.    3219.78  E(vib)   ...       0.00
freq.    3219.79  E(vib)   ...       0.00
freq.    3224.90  E(vib)   ...       0.00
freq.    3224.90  E(vib)   ...       0.00
freq.    3232.09  E(vib)   ...       0.00
freq.    3232.10  E(vib)   ...       0.00
freq.    3238.47  E(vib)   ...       0.00
freq.    3238.48  E(vib)   ...       0.00
freq.    3298.62  E(vib)   ...       0.00
freq.    3306.41  E(vib)   ...       0.00
freq.    3323.68  E(vib)   ...       0.00

------------
INNER ENERGY
------------

The inner energy is: U= E(el) + E(ZPE) + E(vib) + E(rot) + E(trans)
    E(el)   - is the total energy from the electronic structure calculation
              = E(kin-el) + E(nuc-el) + E(el-el) + E(nuc-nuc)
    E(ZPE)  - the the zero temperature vibrational energy from the frequency calculation
    E(vib)  - the the finite temperature correction to E(ZPE) due to population
              of excited vibrational states
    E(rot)  - is the rotational thermal energy
    E(trans)- is the translational thermal energy

Summary of contributions to the inner energy U:
Electronic energy                ...   -688.84190204 Eh
Zero point energy                ...      0.24876046 Eh     156.10 kcal/mol
Thermal vibrational correction   ...      0.00984738 Eh       6.18 kcal/mol
Thermal rotational correction    ...      0.00141627 Eh       0.89 kcal/mol
Thermal translational correction ...      0.00141627 Eh       0.89 kcal/mol
-----------------------------------------------------------------------
Total thermal energy                   -688.58046166 Eh

Summary of corrections to the electronic energy:
(perhaps to be used in another calculation)
Total thermal correction                  0.01267992 Eh       7.96 kcal/mol
Non-thermal (ZPE) correction              0.24876046 Eh     156.10 kcal/mol
-----------------------------------------------------------------------
Total correction                          0.26144038 Eh     164.06 kcal/mol

--------
ENTHALPY
--------

The enthalpy is H = U + kB*T
                kB is Boltzmann's constant
Total free energy                 ...   -688.58046166 Eh
Thermal Enthalpy correction       ...      0.00094421 Eh       0.59 kcal/mol
-----------------------------------------------------------------------
Total Enthalpy                    ...   -688.57951745 Eh

Note: Rotational entropy computed according to Herzberg
Infrared and Raman Spectra, Chapter V,1, Van Nostrand Reinhold, 1945
Point Group:  C2, Symmetry Number:   2
Rotational constants in cm-1:     0.053158     0.006815     0.006496

Vibrational entropy computed according to the QRRHO of S. Grimme
Chem.Eur.J. 2012 18 9955

-------
ENTROPY
-------

The entropy contributions are T*S = T*(S(el)+S(vib)+S(rot)+S(trans))
     S(el)   - electronic entropy
     S(vib)  - vibrational entropy

                             ****ORCA TERMINATED NORMALLY****
TOTAL RUN TIME: 0 days 1 hours 28 minutes 38 seconds 251 msec
