                         Program Version 5.0.4 -  RELEASE  -
|  1> # ORCA 5.0.4 - /users/bwb16179/postgrad/2024_06/pKa_Reviewer_Comments/Aq_Z=1/8_prot.inp # write input file
|  2> # Basic Mode
|  3> #
|  4> ! Opt Freq wB97X Def2-TZVP D4 SlowConv TightSCF Defgrid2 Def2/J RIJCOSX CPCM(Water)
|  5>
|  6> %PAL NPROCS 4 END
|  7>
|  8> %maxcore 4500
|  9>
| 10> %geom
| 11> Maxiter 150
| 12> END
| 13>
| 14> * xyzfile 1 1 8_prot.xyz
| 15>
| 16>                          ****END OF INPUT****
 Total Charge           Charge          ....    1
 Multiplicity           Mult            ....    1
 Number of Electrons    NEL             ....  148
Dispersion correction           -0.009649828
FINAL SINGLE POINT ENERGY      -845.933984717225
Dispersion correction            ... Starting D4
Dispersion correction           -0.009646387
FINAL SINGLE POINT ENERGY      -845.996949023102
Dispersion correction            ... Starting D4
Dispersion correction           -0.009550460
FINAL SINGLE POINT ENERGY      -846.049058852578
Dispersion correction            ... Starting D4
FINAL SINGLE POINT ENERGY      -846.090608787261
FINAL SINGLE POINT ENERGY      -846.118975389415
FINAL SINGLE POINT ENERGY      -846.127453350109
FINAL SINGLE POINT ENERGY      -846.129012610882
FINAL SINGLE POINT ENERGY      -846.128201807031
FINAL SINGLE POINT ENERGY      -846.130034775090
FINAL SINGLE POINT ENERGY      -846.130367530477
FINAL SINGLE POINT ENERGY      -846.130735572737
FINAL SINGLE POINT ENERGY      -846.131036754896
FINAL SINGLE POINT ENERGY      -846.131252587988
FINAL SINGLE POINT ENERGY      -846.131424264991
FINAL SINGLE POINT ENERGY      -846.131531203526
FINAL SINGLE POINT ENERGY      -846.131535332080
Dispersion correction           -0.009548078
FINAL SINGLE POINT ENERGY      -846.131539055545
Dispersion correction            ... Starting D4
Dispersion correction           -0.009548204
FINAL SINGLE POINT ENERGY      -846.131542443026
Dispersion correction            ... Starting D4
                    ***********************HURRAY********************

CARTESIAN COORDINATES (ANGSTROEM)
---------------------------------
  C      0.146223   -1.113254    0.032259
  N     -0.938898   -0.354031    0.093045
  C     -0.553425    0.970143    0.112613
  C      0.796733    0.987256    0.061027
  N      1.213285   -0.326608    0.011696
  C     -2.290746   -0.852322    0.126825
  C     -2.909611   -1.151865   -1.084318
  C     -4.209137   -1.642523   -1.026338
  C     -4.846018   -1.819685    0.191720
  C     -4.198609   -1.508688    1.377268
  C     -2.899279   -1.014752    1.368831
  C     -2.204738   -0.960653   -2.397965
  H     -1.375330   -1.664298   -2.506390
  H     -1.792722    0.046547   -2.488181
  H     -2.895419   -1.124387   -3.223594
  C     -2.184173   -0.673676    2.645759
  H     -1.230169   -1.200858    2.721210
  H     -2.794563   -0.947033    3.505020
  H     -1.971675    0.396169    2.705805
  C      2.575905   -0.792057   -0.054064
  C      3.153178   -0.954739   -1.310918
  C      4.462977   -1.418523   -1.350686
  C      5.150704   -1.699918   -0.180699
  C      4.544501   -1.522517    1.053039
  C      3.236054   -1.061071    1.142207
  C      2.396828   -0.639375   -2.570589
  H      3.003150   -0.873703   -3.444001
  H      2.130040    0.419076   -2.614207
  H      1.469167   -1.213040   -2.634352
  C      2.564114   -0.865386    2.472219
  H      2.191416    0.155033    2.583738
  H      3.264494   -1.063929    3.281839
  H      1.711308   -1.539053    2.586850
  H     -4.722524   -1.884885   -1.949729
  H     -5.859224   -2.203337    0.217486
  H     -4.701963   -1.649170    2.326903
  H      6.171537   -2.060260   -0.230775
  H      5.089225   -1.742541    1.963959
  H      4.943317   -1.556764   -2.312500
  H     -1.274914    1.768377    0.162507
  H      1.498642    1.804245    0.054858
  H      0.159190   -2.192418    0.003204

 Multiplicity           Mult            ....    1
 Number of Electrons    NEL             ....  148
 Basis Dimension        Dim             ....  777

ORBITAL ENERGIES
----------------

  NO   OCC          E(Eh)            E(eV)
   0   2.0000     -14.507469      -394.7683
   1   2.0000     -14.507439      -394.7675
   2   2.0000     -10.375729      -282.3380
   3   2.0000     -10.324928      -280.9556
   4   2.0000     -10.324178      -280.9352
   5   2.0000     -10.317571      -280.7554
   6   2.0000     -10.317535      -280.7544
   7   2.0000     -10.289438      -279.9899
   8   2.0000     -10.289416      -279.9892
   9   2.0000     -10.289344      -279.9873
  10   2.0000     -10.289275      -279.9854
  11   2.0000     -10.269979      -279.4603
  12   2.0000     -10.269944      -279.4594
  13   2.0000     -10.264884      -279.3217
  14   2.0000     -10.264859      -279.3210
  15   2.0000     -10.264821      -279.3200
  16   2.0000     -10.264811      -279.3197
  17   2.0000     -10.256970      -279.1063
  18   2.0000     -10.256902      -279.1045
  19   2.0000     -10.256864      -279.1035
  20   2.0000     -10.256782      -279.1012
  21   2.0000      -1.234037       -33.5799
  22   2.0000      -1.118752       -30.4428
  23   2.0000      -1.024508       -27.8783
  24   2.0000      -1.005593       -27.3636
  25   2.0000      -0.946798       -25.7637
  26   2.0000      -0.933820       -25.4105
  27   2.0000      -0.933393       -25.3989
  28   2.0000      -0.918432       -24.9918
  29   2.0000      -0.897883       -24.4326
  30   2.0000      -0.856778       -23.3141
  31   2.0000      -0.836432       -22.7605
  32   2.0000      -0.819448       -22.2983
  33   2.0000      -0.818405       -22.2699
  34   2.0000      -0.790842       -21.5199
  35   2.0000      -0.786883       -21.4122
  36   2.0000      -0.740501       -20.1501
  37   2.0000      -0.731659       -19.9095
  38   2.0000      -0.719880       -19.5889
  39   2.0000      -0.716894       -19.5077
  40   2.0000      -0.687224       -18.7003
  41   2.0000      -0.648417       -17.6443
  42   2.0000      -0.643356       -17.5066
  43   2.0000      -0.614345       -16.7172
  44   2.0000      -0.612427       -16.6650
  45   2.0000      -0.592056       -16.1107
  46   2.0000      -0.591478       -16.0949
  47   2.0000      -0.582611       -15.8536
  48   2.0000      -0.575558       -15.6617
  49   2.0000      -0.574678       -15.6378
  50   2.0000      -0.549258       -14.9461
  51   2.0000      -0.547221       -14.8906
  52   2.0000      -0.540500       -14.7078
  53   2.0000      -0.539236       -14.6734
  54   2.0000      -0.533823       -14.5261
  55   2.0000      -0.530080       -14.4242
  56   2.0000      -0.524152       -14.2629
  57   2.0000      -0.524053       -14.2602
  58   2.0000      -0.519636       -14.1400
  59   2.0000      -0.517127       -14.0718
  60   2.0000      -0.489310       -13.3148
  61   2.0000      -0.486449       -13.2369
  62   2.0000      -0.475019       -12.9259
  63   2.0000      -0.474130       -12.9017
  64   2.0000      -0.471718       -12.8361
  65   2.0000      -0.461118       -12.5477
  66   2.0000      -0.456902       -12.4329
  67   2.0000      -0.456718       -12.4279
  68   2.0000      -0.429887       -11.6978
  69   2.0000      -0.383103       -10.4248
  70   2.0000      -0.364388        -9.9155
  71   2.0000      -0.360340        -9.8054
  72   2.0000      -0.348094        -9.4721
  73   2.0000      -0.347310        -9.4508
  74   0.0000       0.042174         1.1476
  75   0.0000       0.045262         1.2316
  76   0.0000       0.051838         1.4106
  77   0.0000       0.059871         1.6292
  78   0.0000       0.060737         1.6527

MULLIKEN ATOMIC CHARGES
-----------------------
   0 C :    0.075513
   1 N :    0.076019
   2 C :   -0.086412
   3 C :   -0.089167
   4 N :    0.077762
   5 C :    0.070649
   6 C :   -0.049540
   7 C :   -0.160388
   8 C :   -0.162204
   9 C :   -0.156595
  10 C :   -0.054367
  11 C :   -0.408371
  12 H :    0.159151
  13 H :    0.155691
  14 H :    0.157327
  15 C :   -0.404129
  16 H :    0.152628
  17 H :    0.156037
  18 H :    0.159108
  19 C :    0.074866
  20 C :   -0.055133
  21 C :   -0.156352
  22 C :   -0.162601
  23 C :   -0.156920
  24 C :   -0.055477
  25 C :   -0.403049
  26 H :    0.156306
  27 H :    0.158529
  28 H :    0.150898
  29 C :   -0.406209
  30 H :    0.155443
  31 H :    0.156481
  32 H :    0.157382
  33 H :    0.161214
  34 H :    0.167274
  35 H :    0.161168
  36 H :    0.167312
  37 H :    0.161151
  38 H :    0.161240
  39 H :    0.232642
  40 H :    0.232324
  41 H :    0.272798
Sum of atomic charges:    1.0000000

LOEWDIN ATOMIC CHARGES
----------------------
   0 C :   -0.106418
   1 N :    0.332021
   2 C :   -0.133922
   3 C :   -0.134069
   4 N :    0.332457
   5 C :   -0.107667
   6 C :   -0.131357
   7 C :   -0.113667
   8 C :   -0.124525
   9 C :   -0.113631
  10 C :   -0.131468
  11 C :   -0.238741
  12 H :    0.137139
  13 H :    0.136387
  14 H :    0.136820
  15 C :   -0.237901
  16 H :    0.135608
  17 H :    0.136628
  18 H :    0.137820
  19 C :   -0.107615
  20 C :   -0.131452
  21 C :   -0.113764
  22 C :   -0.124448
  23 C :   -0.113722
  24 C :   -0.131402
  25 C :   -0.237792
  26 H :    0.136671
  27 H :    0.137963
  28 H :    0.135306
  29 C :   -0.238318
  30 H :    0.136711
  31 H :    0.136633
  32 H :    0.136815
  33 H :    0.158121
  34 H :    0.156961
  35 H :    0.158093
  36 H :    0.156975
  37 H :    0.158062
  38 H :    0.158125
  39 H :    0.169101
  40 H :    0.169090
  41 H :    0.182373

  Mayer bond orders larger than 0.100000
B(  0-C ,  1-N ) :   1.3307 B(  0-C ,  4-N ) :   1.3326 B(  0-C , 41-H ) :   0.9210
B(  1-N ,  2-C ) :   1.1034 B(  1-N ,  5-C ) :   0.8943 B(  2-C ,  3-C ) :   1.5825
B(  2-C , 39-H ) :   0.9602 B(  3-C ,  4-N ) :   1.1035 B(  3-C , 40-H ) :   0.9609
B(  4-N , 19-C ) :   0.8940 B(  5-C ,  6-C ) :   1.4016 B(  5-C , 10-C ) :   1.4032
B(  6-C ,  7-C ) :   1.4371 B(  6-C , 11-C ) :   0.9080 B(  7-C ,  8-C ) :   1.3667
B(  7-C , 33-H ) :   0.9825 B(  8-C ,  9-C ) :   1.3648 B(  8-C , 34-H ) :   0.9911
B(  9-C , 10-C ) :   1.4389 B(  9-C , 35-H ) :   0.9820 B( 10-C , 15-C ) :   0.9098
B( 11-C , 12-H ) :   0.9629 B( 11-C , 13-H ) :   0.9827 B( 11-C , 14-H ) :   0.9843
B( 15-C , 16-H ) :   0.9769 B( 15-C , 17-H ) :   0.9862 B( 15-C , 18-H ) :   0.9687
B( 19-C , 20-C ) :   1.4016 B( 19-C , 24-C ) :   1.4024 B( 20-C , 21-C ) :   1.4392
B( 20-C , 25-C ) :   0.9095 B( 21-C , 22-C ) :   1.3650 B( 21-C , 38-H ) :   0.9818
B( 22-C , 23-C ) :   1.3657 B( 22-C , 36-H ) :   0.9909 B( 23-C , 24-C ) :   1.4390
B( 23-C , 37-H ) :   0.9816 B( 24-C , 29-C ) :   0.9092 B( 25-C , 26-H ) :   0.9872
B( 25-C , 27-H ) :   0.9734 B( 25-C , 28-H ) :   0.9718 B( 29-C , 30-H ) :   0.9774
B( 29-C , 31-H ) :   0.9862 B( 29-C , 32-H ) :   0.9675

Dispersion correction           -0.009548199
FINAL SINGLE POINT ENERGY      -846.131541380653

DIPOLE MOMENT
-------------
                                X             Y             Z
Electronic contribution:     -0.01327       0.71868       0.02944
Nuclear contribution   :      0.00779      -0.07004      -0.00787
                        -----------------------------------------
Total Dipole Moment    :     -0.00549       0.64864       0.02157
                        -----------------------------------------
Magnitude (a.u.)       :      0.64902
Magnitude (Debye)      :      1.64968

Dispersion correction in the Hessian             ... Starting D4

VIBRATIONAL FREQUENCIES
-----------------------

Scaling factor for frequencies =  1.000000000  (already applied!)

   0:         0.00 cm**-1
   1:         0.00 cm**-1
   2:         0.00 cm**-1
   3:         0.00 cm**-1
   4:         0.00 cm**-1
   5:         0.00 cm**-1
   6:       -11.82 cm**-1 ***imaginary mode***
   7:        11.70 cm**-1
   8:        50.95 cm**-1
   9:        54.22 cm**-1
  10:        83.37 cm**-1
  11:        85.72 cm**-1
  12:       102.27 cm**-1
  13:       119.38 cm**-1
  14:       121.51 cm**-1
  15:       146.26 cm**-1
  16:       160.59 cm**-1
  17:       197.03 cm**-1
  18:       212.16 cm**-1
  19:       237.36 cm**-1
  20:       238.05 cm**-1
  21:       284.78 cm**-1
  22:       302.96 cm**-1
  23:       334.48 cm**-1
  24:       357.15 cm**-1
  25:       359.10 cm**-1
  26:       393.83 cm**-1
  27:       428.30 cm**-1
  28:       484.36 cm**-1
  29:       495.18 cm**-1
  30:       538.76 cm**-1
  31:       538.81 cm**-1
  32:       543.19 cm**-1
  33:       548.56 cm**-1
  34:       571.58 cm**-1
  35:       591.70 cm**-1
  36:       597.22 cm**-1
  37:       618.44 cm**-1
  38:       691.63 cm**-1
  39:       692.64 cm**-1
  40:       770.31 cm**-1
  41:       775.62 cm**-1
  42:       778.67 cm**-1
  43:       782.58 cm**-1
  44:       790.78 cm**-1
  45:       812.56 cm**-1
  46:       814.35 cm**-1
  47:       903.83 cm**-1
  48:       916.77 cm**-1
  49:       944.96 cm**-1
  50:       946.18 cm**-1
  51:       946.91 cm**-1
  52:       948.43 cm**-1
  53:       977.37 cm**-1
  54:       987.37 cm**-1
  55:      1023.15 cm**-1
  56:      1023.63 cm**-1
  57:      1037.32 cm**-1
  58:      1038.39 cm**-1
  59:      1069.75 cm**-1
  60:      1069.92 cm**-1
  61:      1071.36 cm**-1
  62:      1072.17 cm**-1
  63:      1072.81 cm**-1
  64:      1073.45 cm**-1
  65:      1090.03 cm**-1
  66:      1107.34 cm**-1
  67:      1120.10 cm**-1
  68:      1130.58 cm**-1
  69:      1150.47 cm**-1
  70:      1186.90 cm**-1
  71:      1189.63 cm**-1
  72:      1250.32 cm**-1
  73:      1276.63 cm**-1
  74:      1292.49 cm**-1
  75:      1293.47 cm**-1
  76:      1299.79 cm**-1
  77:      1306.99 cm**-1
  78:      1308.05 cm**-1
  79:      1309.81 cm**-1
  80:      1373.84 cm**-1
  81:      1406.38 cm**-1
  82:      1416.45 cm**-1
  83:      1416.91 cm**-1
  84:      1420.24 cm**-1
  85:      1420.92 cm**-1
  86:      1448.10 cm**-1
  87:      1464.83 cm**-1
  88:      1475.12 cm**-1
  89:      1476.34 cm**-1
  90:      1479.72 cm**-1
  91:      1480.45 cm**-1
  92:      1481.64 cm**-1
  93:      1482.21 cm**-1
  94:      1483.59 cm**-1
  95:      1526.65 cm**-1
  96:      1532.09 cm**-1
  97:      1532.95 cm**-1
  98:      1540.48 cm**-1
  99:      1624.97 cm**-1
 100:      1628.09 cm**-1
 101:      1677.04 cm**-1
 102:      1677.42 cm**-1
 103:      1687.81 cm**-1
 104:      1688.75 cm**-1
 105:      3067.69 cm**-1
 106:      3068.33 cm**-1
 107:      3069.43 cm**-1
 108:      3070.02 cm**-1
 109:      3132.52 cm**-1
 110:      3132.91 cm**-1
 111:      3133.96 cm**-1
 112:      3134.87 cm**-1
 113:      3169.88 cm**-1
 114:      3170.04 cm**-1
 115:      3170.40 cm**-1
 116:      3171.14 cm**-1
 117:      3206.76 cm**-1
 118:      3206.78 cm**-1
 119:      3214.67 cm**-1
 120:      3214.78 cm**-1
 121:      3227.79 cm**-1
 122:      3227.84 cm**-1
 123:      3293.79 cm**-1
 124:      3301.99 cm**-1
 125:      3319.54 cm**-1

IR SPECTRUM
-----------

 Mode   freq       eps      Int      T**2         TX        TY        TZ
       cm**-1   L/(mol*cm) km/mol    a.u.
----------------------------------------------------------------------------
  7:     11.70   0.000050    0.25  0.001331  ( 0.000554  0.002147  0.036420)
  8:     50.95   0.000145    0.73  0.000887  (-0.000284  0.029739 -0.001518)
  9:     54.22   0.000027    0.13  0.000154  (-0.000796  0.012269 -0.001534)
 10:     83.37   0.000033    0.17  0.000124  ( 0.010243  0.004395 -0.000485)
 11:     85.72   0.000027    0.14  0.000099  (-0.002425  0.009655 -0.000556)
 12:    102.27   0.000143    0.72  0.000437  ( 0.000216  0.020743 -0.002513)
 13:    119.38   0.000208    1.05  0.000544  ( 0.003115 -0.023082  0.001036)
 14:    121.51   0.000089    0.45  0.000229  (-0.004835  0.013530  0.004798)
 15:    146.26   0.000060    0.30  0.000128  (-0.011117 -0.001966 -0.000251)
 16:    160.59   0.000079    0.40  0.000153  (-0.004912 -0.011335 -0.000099)
 17:    197.03   0.000109    0.55  0.000172  (-0.012995  0.000622 -0.001759)
 18:    212.16   0.000127    0.64  0.000187  (-0.000354  0.013664 -0.000173)
 19:    237.36   0.000004    0.02  0.000005  ( 0.000368  0.002295  0.000150)
 20:    238.05   0.000003    0.01  0.000004  ( 0.000131 -0.001162  0.001488)
 21:    284.78   0.000013    0.07  0.000015  ( 0.003711  0.000838  0.000415)
 22:    302.96   0.000009    0.05  0.000009  (-0.000714 -0.000212  0.002957)
 23:    334.48   0.004535   22.92  0.004231  (-0.000535  0.065041 -0.000447)
 24:    357.15   0.001970    9.95  0.001721  (-0.000839  0.041476 -0.000092)
 25:    359.10   0.000035    0.18  0.000031  (-0.000855  0.005484 -0.000207)
 26:    393.83   0.000077    0.39  0.000061  (-0.007032 -0.000295 -0.003420)
 27:    428.30   0.001754    8.87  0.001278  ( 0.035747  0.000638  0.000123)
 28:    484.36   0.000170    0.86  0.000110  ( 0.000626  0.000026 -0.010455)
 29:    495.18   0.000001    0.00  0.000001  (-0.000103 -0.000724 -0.000240)
 30:    538.76   0.000005    0.03  0.000003  (-0.000112  0.000164 -0.001757)
 31:    538.81   0.000001    0.01  0.000001  ( 0.000023  0.000420 -0.000683)
 32:    543.19   0.001005    5.08  0.000577  ( 0.000235 -0.000330  0.024028)
 33:    548.56   0.000002    0.01  0.000001  (-0.000083  0.001115  0.000219)
 34:    571.58   0.000656    3.31  0.000358  ( 0.000566 -0.018915 -0.000085)
 35:    591.70   0.000014    0.07  0.000007  ( 0.000809  0.002588  0.000078)
 36:    597.22   0.000476    2.41  0.000249  ( 0.015765  0.000246  0.000562)
 37:    618.44   0.000092    0.46  0.000046  (-0.006797 -0.000234 -0.000052)
 38:    691.63   0.000025    0.13  0.000011  (-0.000074  0.002626  0.002118)
 39:    692.64   0.012411   62.72  0.005591  (-0.001310  0.001441 -0.074751)
 40:    770.31   0.000061    0.31  0.000025  (-0.000007 -0.004802 -0.001210)
 41:    775.62   0.011814   59.70  0.004753  ( 0.002205 -0.002440  0.068866)
 42:    778.67   0.000401    2.03  0.000161  ( 0.012491  0.000297 -0.002145)
 43:    782.58   0.000355    1.80  0.000142  ( 0.000489 -0.011724 -0.001992)
 44:    790.78   0.000133    0.67  0.000052  ( 0.007141 -0.001119 -0.000448)
 45:    812.56   0.018516   93.57  0.007111  (-0.024645  0.080491 -0.004975)
 46:    814.35   0.013053   65.96  0.005002  (-0.030029 -0.063914 -0.003884)
 47:    903.83   0.008047   40.67  0.002778  (-0.001657  0.001191 -0.052671)
 48:    916.77   0.000003    0.02  0.000001  ( 0.000658 -0.000818  0.000192)
 49:    944.96   0.000031    0.16  0.000010  ( 0.000418 -0.003081 -0.000736)
 50:    946.18   0.000850    4.29  0.000280  ( 0.002046  0.000589 -0.016604)
 51:    946.91   0.000264    1.33  0.000087  ( 0.000294  0.001337  0.009229)
 52:    948.43   0.000078    0.39  0.000026  ( 0.000661 -0.000056  0.005013)
 53:    977.37   0.003980   20.12  0.001271  (-0.035636 -0.000462  0.000866)
 54:    987.37   0.000134    0.68  0.000042  (-0.000055  0.006503  0.000080)
 55:   1023.15   0.000578    2.92  0.000176  (-0.012155 -0.005342 -0.000125)
 56:   1023.63   0.000716    3.62  0.000218  (-0.014196  0.004032  0.000616)
 57:   1037.32   0.000027    0.14  0.000008  (-0.001920  0.001707 -0.001286)
 58:   1038.39   0.000022    0.11  0.000007  (-0.002003 -0.001470 -0.000701)
 59:   1069.75   0.000337    1.70  0.000098  (-0.005760  0.001694  0.007897)
 60:   1069.92   0.003261   16.48  0.000951  ( 0.000257  0.030637  0.003548)
 61:   1071.36   0.000186    0.94  0.000054  (-0.001215 -0.003640  0.006292)
 62:   1072.17   0.001271    6.42  0.000370  ( 0.001656 -0.018582  0.004671)
 63:   1072.81   0.000113    0.57  0.000033  (-0.003580  0.001832  0.004083)
 64:   1073.45   0.000386    1.95  0.000112  (-0.000567  0.009198  0.005226)
 65:   1090.03   0.005786   29.24  0.001656  (-0.040673 -0.000050  0.001448)
 66:   1107.34   0.002199   11.11  0.000620  ( 0.000882  0.024865  0.000832)
 67:   1120.10   0.001971    9.96  0.000549  (-0.001404  0.023369  0.001044)
 68:   1130.58   0.010745   54.30  0.002966  ( 0.054429  0.001176 -0.001368)
 69:   1150.47   0.000111    0.56  0.000030  ( 0.001999 -0.005107 -0.000201)
 70:   1186.90   0.001429    7.22  0.000376  (-0.000392  0.000969  0.019355)
 71:   1189.63   0.001506    7.61  0.000395  (-0.000058 -0.000939  0.019856)
 72:   1250.32   0.022649  114.46  0.005653  ( 0.075138  0.000921 -0.002553)
 73:   1276.63   0.001047    5.29  0.000256  (-0.015973 -0.000113  0.000887)
 74:   1292.49   0.000872    4.41  0.000211  (-0.000567  0.000980  0.014469)
 75:   1293.47   0.001281    6.47  0.000309  ( 0.000116 -0.000544  0.017569)
 76:   1299.79   0.000003    0.02  0.000001  ( 0.000760 -0.000402  0.000122)
 77:   1306.99   0.001583    8.00  0.000378  (-0.001226 -0.001049 -0.019371)
 78:   1308.05   0.003489   17.63  0.000832  ( 0.009023 -0.000825  0.027392)
 79:   1309.81   0.002992   15.12  0.000713  ( 0.024573  0.000283 -0.010434)
 80:   1373.84   0.000861    4.35  0.000196  ( 0.000271 -0.013892 -0.001616)
 81:   1406.38   0.000008    0.04  0.000002  ( 0.000723  0.000160  0.001098)
 82:   1416.45   0.000128    0.65  0.000028  (-0.001548 -0.000109  0.005073)
 83:   1416.91   0.000119    0.60  0.000026  ( 0.002941  0.002712  0.003179)
 84:   1420.24   0.000248    1.26  0.000055  (-0.006112  0.003958 -0.001248)
 85:   1420.92   0.000978    4.94  0.000215  ( 0.014437  0.001137 -0.002266)
 86:   1448.10   0.000446    2.26  0.000096  ( 0.000030 -0.009770  0.000866)
 87:   1464.83   0.001507    7.62  0.000321  (-0.017530  0.001918 -0.003174)
 88:   1475.12   0.002719   13.74  0.000575  (-0.003390 -0.023512  0.003294)
 89:   1476.34   0.002777   14.03  0.000587  (-0.010689  0.005900  0.020928)
 90:   1479.72   0.000721    3.64  0.000152  (-0.007168 -0.010032  0.000279)
 91:   1480.45   0.003359   16.98  0.000708  ( 0.009556  0.021262  0.012834)
 92:   1481.64   0.004604   23.27  0.000970  ( 0.011618 -0.027606  0.008522)
 93:   1482.21   0.001962    9.92  0.000413  ( 0.009745  0.017818 -0.000843)
 94:   1483.59   0.003193   16.14  0.000672  (-0.006444  0.025088 -0.000890)
 95:   1526.65   0.016271   82.23  0.003326  ( 0.057641  0.001173 -0.001450)
 96:   1532.09   0.003046   15.39  0.000620  ( 0.000997 -0.001915 -0.024813)
 97:   1532.95   0.008885   44.90  0.001809  ( 0.000258 -0.001166  0.042513)
 98:   1540.48   0.003321   16.78  0.000673  (-0.001143  0.025888  0.001159)
 99:   1624.97   0.050043  252.90  0.009610  (-0.097941 -0.001574  0.003927)
100:   1628.09   0.000879    4.44  0.000168  ( 0.001627 -0.012841 -0.000970)
101:   1677.04   0.002201   11.12  0.000410  (-0.019997 -0.003064  0.000603)
102:   1677.42   0.000722    3.65  0.000134  ( 0.009819 -0.006096 -0.000832)
103:   1687.81   0.000023    0.12  0.000004  ( 0.000433 -0.001782  0.000976)
104:   1688.75   0.006950   35.12  0.001284  (-0.000944 -0.000209 -0.035824)
105:   3067.69   0.006920   34.97  0.000704  (-0.003021 -0.001393  0.026323)
106:   3068.33   0.002138   10.80  0.000217  ( 0.008340  0.006184  0.010471)
107:   3069.43   0.001535    7.76  0.000156  (-0.008074  0.002564 -0.009184)
108:   3070.02   0.005077   25.65  0.000516  ( 0.022375 -0.001477 -0.003632)
109:   3132.52   0.003028   15.30  0.000302  ( 0.005833 -0.016353 -0.000442)
110:   3132.91   0.004606   23.27  0.000459  (-0.001151 -0.021219  0.002681)
111:   3133.96   0.000659    3.33  0.000066  (-0.007613  0.000622 -0.002702)
112:   3134.87   0.001647    8.32  0.000164  ( 0.006097  0.011037  0.002223)
113:   3169.88   0.004491   22.70  0.000442  (-0.000151 -0.001012  0.021002)
114:   3170.04   0.003279   16.57  0.000323  ( 0.016199  0.007731  0.000751)
115:   3170.40   0.003146   15.90  0.000310  ( 0.014352 -0.003617  0.009521)
116:   3171.14   0.003644   18.41  0.000359  ( 0.014024 -0.004298 -0.011976)
117:   3206.76   0.000050    0.25  0.000005  (-0.002147 -0.000380  0.000391)
118:   3206.78   0.000020    0.10  0.000002  (-0.000910  0.001050 -0.000039)
119:   3214.67   0.002289   11.57  0.000222  ( 0.000210  0.000838  0.014882)
120:   3214.78   0.002327   11.76  0.000226  (-0.000453  0.000605 -0.015011)
121:   3227.79   0.003033   15.33  0.000293  ( 0.016690 -0.003701 -0.000977)
122:   3227.84   0.001612    8.15  0.000156  (-0.010957 -0.005966  0.000448)
123:   3293.79   0.013044   65.92  0.001236  ( 0.000468 -0.035137 -0.000982)
124:   3301.99   0.006352   32.10  0.000600  (-0.024479 -0.000245  0.001016)
125:   3319.54   0.002842   14.36  0.000267  (-0.000143  0.016339  0.000461)

--------------------------
THERMOCHEMISTRY AT 298.15K
--------------------------

Temperature         ... 298.15 K
Pressure            ... 1.00 atm
Total Mass          ... 277.39 AMU

Throughout the following assumptions are being made:
  (1) The electronic state is orbitally nondegenerate
  (2) There are no thermally accessible electronically excited states
  (3) Hindered rotations indicated by low frequency modes are not
      treated as such but are treated as vibrations and this may
      cause some error
  (4) All equations used are the standard statistical mechanics
      equations for an ideal gas
  (5) All vibrations are strictly harmonic

freq.      11.70  E(vib)   ...       0.58
freq.      50.95  E(vib)   ...       0.52
freq.      54.22  E(vib)   ...       0.52
freq.      83.37  E(vib)   ...       0.48
freq.      85.72  E(vib)   ...       0.48
freq.     102.27  E(vib)   ...       0.46
freq.     119.38  E(vib)   ...       0.44
freq.     121.51  E(vib)   ...       0.44
freq.     146.26  E(vib)   ...       0.41
freq.     160.59  E(vib)   ...       0.39
freq.     197.03  E(vib)   ...       0.35
freq.     212.16  E(vib)   ...       0.34
freq.     237.36  E(vib)   ...       0.32
freq.     238.05  E(vib)   ...       0.32
freq.     284.78  E(vib)   ...       0.28
freq.     302.96  E(vib)   ...       0.26
freq.     334.48  E(vib)   ...       0.24
freq.     357.15  E(vib)   ...       0.22
freq.     359.10  E(vib)   ...       0.22
freq.     393.83  E(vib)   ...       0.20
freq.     428.30  E(vib)   ...       0.18
freq.     484.36  E(vib)   ...       0.15
freq.     495.18  E(vib)   ...       0.14
freq.     538.76  E(vib)   ...       0.12
freq.     538.81  E(vib)   ...       0.12
freq.     543.19  E(vib)   ...       0.12
freq.     548.56  E(vib)   ...       0.12
freq.     571.58  E(vib)   ...       0.11
freq.     591.70  E(vib)   ...       0.10
freq.     597.22  E(vib)   ...       0.10
freq.     618.44  E(vib)   ...       0.09
freq.     691.63  E(vib)   ...       0.07
freq.     692.64  E(vib)   ...       0.07
freq.     770.31  E(vib)   ...       0.05
freq.     775.62  E(vib)   ...       0.05
freq.     778.67  E(vib)   ...       0.05
freq.     782.58  E(vib)   ...       0.05
freq.     790.78  E(vib)   ...       0.05
freq.     812.56  E(vib)   ...       0.05
freq.     814.35  E(vib)   ...       0.05
freq.     903.83  E(vib)   ...       0.03
freq.     916.77  E(vib)   ...       0.03
freq.     944.96  E(vib)   ...       0.03
freq.     946.18  E(vib)   ...       0.03
freq.     946.91  E(vib)   ...       0.03
freq.     948.43  E(vib)   ...       0.03
freq.     977.37  E(vib)   ...       0.03
freq.     987.37  E(vib)   ...       0.02
freq.    1023.15  E(vib)   ...       0.02
freq.    1023.63  E(vib)   ...       0.02
freq.    1037.32  E(vib)   ...       0.02
freq.    1038.39  E(vib)   ...       0.02
freq.    1069.75  E(vib)   ...       0.02
freq.    1069.92  E(vib)   ...       0.02
freq.    1071.36  E(vib)   ...       0.02
freq.    1072.17  E(vib)   ...       0.02
freq.    1072.81  E(vib)   ...       0.02
freq.    1073.45  E(vib)   ...       0.02
freq.    1090.03  E(vib)   ...       0.02
freq.    1107.34  E(vib)   ...       0.02
freq.    1120.10  E(vib)   ...       0.01
freq.    1130.58  E(vib)   ...       0.01
freq.    1150.47  E(vib)   ...       0.01
freq.    1186.90  E(vib)   ...       0.01
freq.    1189.63  E(vib)   ...       0.01
freq.    1250.32  E(vib)   ...       0.01
freq.    1276.63  E(vib)   ...       0.01
freq.    1292.49  E(vib)   ...       0.01
freq.    1293.47  E(vib)   ...       0.01
freq.    1299.79  E(vib)   ...       0.01
freq.    1306.99  E(vib)   ...       0.01
freq.    1308.05  E(vib)   ...       0.01
freq.    1309.81  E(vib)   ...       0.01
freq.    1373.84  E(vib)   ...       0.01
freq.    1406.38  E(vib)   ...       0.00
freq.    1416.45  E(vib)   ...       0.00
freq.    1416.91  E(vib)   ...       0.00
freq.    1420.24  E(vib)   ...       0.00
freq.    1420.92  E(vib)   ...       0.00
freq.    1448.10  E(vib)   ...       0.00
freq.    1464.83  E(vib)   ...       0.00
freq.    1475.12  E(vib)   ...       0.00
freq.    1476.34  E(vib)   ...       0.00
freq.    1479.72  E(vib)   ...       0.00
freq.    1480.45  E(vib)   ...       0.00
freq.    1481.64  E(vib)   ...       0.00
freq.    1482.21  E(vib)   ...       0.00
freq.    1483.59  E(vib)   ...       0.00
freq.    1526.65  E(vib)   ...       0.00
freq.    1532.09  E(vib)   ...       0.00
freq.    1532.95  E(vib)   ...       0.00
freq.    1540.48  E(vib)   ...       0.00
freq.    1624.97  E(vib)   ...       0.00
freq.    1628.09  E(vib)   ...       0.00
freq.    1677.04  E(vib)   ...       0.00
freq.    1677.42  E(vib)   ...       0.00
freq.    1687.81  E(vib)   ...       0.00
freq.    1688.75  E(vib)   ...       0.00
freq.    3067.69  E(vib)   ...       0.00
freq.    3068.33  E(vib)   ...       0.00
freq.    3069.43  E(vib)   ...       0.00
freq.    3070.02  E(vib)   ...       0.00
freq.    3132.52  E(vib)   ...       0.00
freq.    3132.91  E(vib)   ...       0.00
freq.    3133.96  E(vib)   ...       0.00
freq.    3134.87  E(vib)   ...       0.00
freq.    3169.88  E(vib)   ...       0.00
freq.    3170.04  E(vib)   ...       0.00
freq.    3170.40  E(vib)   ...       0.00
freq.    3171.14  E(vib)   ...       0.00
freq.    3206.76  E(vib)   ...       0.00
freq.    3206.78  E(vib)   ...       0.00
freq.    3214.67  E(vib)   ...       0.00
freq.    3214.78  E(vib)   ...       0.00
freq.    3227.79  E(vib)   ...       0.00
freq.    3227.84  E(vib)   ...       0.00
freq.    3293.79  E(vib)   ...       0.00
freq.    3301.99  E(vib)   ...       0.00
freq.    3319.54  E(vib)   ...       0.00

------------
INNER ENERGY
------------

The inner energy is: U= E(el) + E(ZPE) + E(vib) + E(rot) + E(trans)
    E(el)   - is the total energy from the electronic structure calculation
              = E(kin-el) + E(nuc-el) + E(el-el) + E(nuc-nuc)
    E(ZPE)  - the the zero temperature vibrational energy from the frequency calculation
    E(vib)  - the the finite temperature correction to E(ZPE) due to population
              of excited vibrational states
    E(rot)  - is the rotational thermal energy
    E(trans)- is the translational thermal energy

Summary of contributions to the inner energy U:
Electronic energy                ...   -846.13154138 Eh
Zero point energy                ...      0.35927294 Eh     225.45 kcal/mol
Thermal vibrational correction   ...      0.01588560 Eh       9.97 kcal/mol
Thermal rotational correction    ...      0.00141627 Eh       0.89 kcal/mol
Thermal translational correction ...      0.00141627 Eh       0.89 kcal/mol
-----------------------------------------------------------------------
Total thermal energy                   -845.75355030 Eh

Summary of corrections to the electronic energy:

Rotational constants in cm-1:     0.023156     0.006009     0.005252

                             ****ORCA TERMINATED NORMALLY****
TOTAL RUN TIME: 0 days 8 hours 7 minutes 10 seconds 431 msec
