                         Program Version 5.0.4 -  RELEASE  -
|  1> # ORCA 5.0.4 - /users/bwb16179/postgrad/2024_06/pKa_Reviewer_Comments/Aq_Z=1/9_prot.inp # write input file
|  2> # Basic Mode
|  3> #
|  4> ! Opt Freq wB97X Def2-TZVP D4 SlowConv TightSCF Defgrid2 Def2/J RIJCOSX CPCM(Water)
|  5>
|  6> %PAL NPROCS 4 END
|  7>
|  8> %maxcore 4500
|  9>
| 10> %geom
| 11> Maxiter 150
| 12> END
| 13>
| 14> * xyzfile 1 1 9_prot.xyz
| 15>
| 16>                          ****END OF INPUT****
 Total Charge           Charge          ....    1
 Multiplicity           Mult            ....    1
 Number of Electrons    NEL             ....   54
Dispersion correction           -0.002476162
FINAL SINGLE POINT ENERGY      -305.408518469829
Dispersion correction            ... Starting D4
Dispersion correction           -0.002409818
FINAL SINGLE POINT ENERGY      -305.511327288932
Dispersion correction            ... Starting D4
Dispersion correction           -0.002326321
FINAL SINGLE POINT ENERGY      -305.611551175717
Dispersion correction            ... Starting D4
FINAL SINGLE POINT ENERGY      -305.707953446245
FINAL SINGLE POINT ENERGY      -305.799012011604
FINAL SINGLE POINT ENERGY      -305.883443511949
FINAL SINGLE POINT ENERGY      -305.961027504406
FINAL SINGLE POINT ENERGY      -306.032822947220
FINAL SINGLE POINT ENERGY      -306.100334006222
FINAL SINGLE POINT ENERGY      -306.164635395681
FINAL SINGLE POINT ENERGY      -306.547624678935
FINAL SINGLE POINT ENERGY      -306.547623845652
FINAL SINGLE POINT ENERGY      -306.547648659496
FINAL SINGLE POINT ENERGY      -306.547616148480
FINAL SINGLE POINT ENERGY      -306.547603002772
FINAL SINGLE POINT ENERGY      -306.547641030149
FINAL SINGLE POINT ENERGY      -306.547633933768
Dispersion correction           -0.001843535
FINAL SINGLE POINT ENERGY      -306.547637888586
Dispersion correction            ... Starting D4
Dispersion correction           -0.001843562
FINAL SINGLE POINT ENERGY      -306.547641859295
Dispersion correction            ... Starting D4
                    ***********************HURRAY********************

CARTESIAN COORDINATES (ANGSTROEM)
---------------------------------
  C      0.087828    0.764505   -1.259585
  C     -0.088091   -0.764644   -1.259640
  N      0.215153    1.073143    0.168496
  N     -0.214981   -1.073116    0.168586
  C      0.000157    0.000036    0.882348
  H     -0.780111    1.286074   -1.665940
  H     -0.980606   -1.089652   -1.792658
  H      0.779838   -1.286100   -1.666207
  H      0.980350    1.089418   -1.792648
  C      0.412762    2.417673    0.662207
  C     -0.412723   -2.417611    0.662320
  H     -0.426273    3.049533    0.366279
  H     -1.334626   -2.826163    0.247986
  H      0.426237   -3.049596    0.366346
  H      1.334572    2.826368    0.247851
  H      0.484157    2.393803    1.747839
  H     -0.484081   -2.393732    1.747941
  H      0.000448    0.000049    1.965940

 Multiplicity           Mult            ....    1
 Number of Electrons    NEL             ....   54
 Basis Dimension        Dim             ....  283

ORBITAL ENERGIES
----------------

  NO   OCC          E(Eh)            E(eV)
   0   2.0000     -14.466698      -393.6589
   1   2.0000     -14.466667      -393.6580
   2   2.0000     -10.378129      -282.4033
   3   2.0000     -10.313552      -280.6460
   4   2.0000     -10.313388      -280.6415
   5   2.0000     -10.299203      -280.2556
   6   2.0000     -10.299199      -280.2555
   7   2.0000      -1.191176       -32.4135
   8   2.0000      -1.081626       -29.4325
   9   2.0000      -0.929718       -25.2989
  10   2.0000      -0.900169       -24.4948
  11   2.0000      -0.832943       -22.6655
  12   2.0000      -0.785114       -21.3640
  13   2.0000      -0.733310       -19.9544
  14   2.0000      -0.667020       -18.1505
  15   2.0000      -0.651618       -17.7314
  16   2.0000      -0.610758       -16.6196
  17   2.0000      -0.580499       -15.7962
  18   2.0000      -0.568602       -15.4725
  19   2.0000      -0.562126       -15.2962
  20   2.0000      -0.551566       -15.0089
  21   2.0000      -0.533004       -14.5038
  22   2.0000      -0.508155       -13.8276
  23   2.0000      -0.496835       -13.5196
  24   2.0000      -0.493561       -13.4305
  25   2.0000      -0.480595       -13.0777
  26   2.0000      -0.349041        -9.4979
  27   0.0000       0.058715         1.5977
  28   0.0000       0.112613         3.0644
  29   0.0000       0.132361         3.6017
  30   0.0000       0.145542         3.9604
  31   0.0000       0.163139         4.4392

MULLIKEN ATOMIC CHARGES
-----------------------
   0 C :   -0.134702
   1 C :   -0.134733
   2 N :   -0.112145
   3 N :   -0.112116
   4 C :    0.165484
   5 H :    0.158695
   6 H :    0.166099
   7 H :    0.158700
   8 H :    0.166064
   9 C :   -0.281729
  10 C :   -0.281733
  11 H :    0.162354
  12 H :    0.164357
  13 H :    0.162350
  14 H :    0.164362
  15 H :    0.166273
  16 H :    0.166267
  17 H :    0.256151
Sum of atomic charges:    1.0000000

LOEWDIN ATOMIC CHARGES
----------------------
   0 C :   -0.182357
   1 C :   -0.182317
   2 N :    0.211313
   3 N :    0.211314
   4 C :   -0.134109
   5 H :    0.147420
   6 H :    0.148265
   7 H :    0.147423
   8 H :    0.148271
   9 C :   -0.246698
  10 C :   -0.246718
  11 H :    0.130429
  12 H :    0.131390
  13 H :    0.130432
  14 H :    0.131384
  15 H :    0.137762
  16 H :    0.137753
  17 H :    0.179043

  Mayer bond orders larger than 0.100000
B(  0-C ,  1-C ) :   1.0046 B(  0-C ,  2-N ) :   0.8963 B(  0-C ,  5-H ) :   0.9584
B(  0-C ,  8-H ) :   0.9623 B(  1-C ,  3-N ) :   0.8963 B(  1-C ,  6-H ) :   0.9623
B(  1-C ,  7-H ) :   0.9584 B(  2-N ,  4-C ) :   1.4706 B(  2-N ,  9-C ) :   0.8986
B(  3-N ,  4-C ) :   1.4706 B(  3-N , 10-C ) :   0.8986 B(  4-C , 17-H ) :   0.8935
B(  9-C , 11-H ) :   0.9625 B(  9-C , 14-H ) :   0.9617 B(  9-C , 15-H ) :   0.9591
B( 10-C , 12-H ) :   0.9617 B( 10-C , 13-H ) :   0.9625 B( 10-C , 16-H ) :   0.9591

Dispersion correction           -0.001843537
FINAL SINGLE POINT ENERGY      -306.547640107166

DIPOLE MOMENT
-------------
                                X             Y             Z
Electronic contribution:      0.00025       0.00004       0.63178
Nuclear contribution   :     -0.00025       0.00001      -0.28855
                        -----------------------------------------
Total Dipole Moment    :      0.00000       0.00005       0.34323
                        -----------------------------------------
Magnitude (a.u.)       :      0.34323
Magnitude (Debye)      :      0.87242

Dispersion correction in the Hessian             ... Starting D4

VIBRATIONAL FREQUENCIES
-----------------------

Scaling factor for frequencies =  1.000000000  (already applied!)

   0:         0.00 cm**-1
   1:         0.00 cm**-1
   2:         0.00 cm**-1
   3:         0.00 cm**-1
   4:         0.00 cm**-1
   5:         0.00 cm**-1
   6:        78.02 cm**-1
   7:       132.28 cm**-1
   8:       155.92 cm**-1
   9:       195.99 cm**-1
  10:       211.25 cm**-1
  11:       274.10 cm**-1
  12:       399.06 cm**-1
  13:       464.49 cm**-1
  14:       611.46 cm**-1
  15:       629.18 cm**-1
  16:       848.37 cm**-1
  17:       943.03 cm**-1
  18:       959.74 cm**-1
  19:      1007.40 cm**-1
  20:      1024.11 cm**-1
  21:      1109.45 cm**-1
  22:      1112.53 cm**-1
  23:      1125.86 cm**-1
  24:      1160.53 cm**-1
  25:      1174.04 cm**-1
  26:      1193.95 cm**-1
  27:      1232.80 cm**-1
  28:      1263.51 cm**-1
  29:      1336.67 cm**-1
  30:      1345.90 cm**-1
  31:      1356.10 cm**-1
  32:      1384.07 cm**-1
  33:      1459.89 cm**-1
  34:      1469.57 cm**-1
  35:      1470.75 cm**-1
  36:      1471.78 cm**-1
  37:      1489.85 cm**-1
  38:      1500.47 cm**-1
  39:      1504.76 cm**-1
  40:      1515.55 cm**-1
  41:      1615.95 cm**-1
  42:      1737.78 cm**-1
  43:      3077.60 cm**-1
  44:      3078.71 cm**-1
  45:      3101.50 cm**-1
  46:      3105.30 cm**-1
  47:      3152.19 cm**-1
  48:      3155.89 cm**-1
  49:      3157.24 cm**-1
  50:      3167.60 cm**-1
  51:      3188.46 cm**-1
  52:      3188.51 cm**-1
  53:      3255.92 cm**-1

IR SPECTRUM
-----------

 Mode   freq       eps      Int      T**2         TX        TY        TZ
       cm**-1   L/(mol*cm) km/mol    a.u.
----------------------------------------------------------------------------
  6:     78.02   0.000000    0.00  0.000001  ( 0.000173  0.000069 -0.001042)
  7:    132.28   0.001037    5.24  0.002446  (-0.048883 -0.007500  0.000003)
  8:    155.92   0.000000    0.00  0.000000  ( 0.000197 -0.000004 -0.000535)
  9:    195.99   0.000629    3.18  0.001001  (-0.031615 -0.001263  0.000001)
 10:    211.25   0.000000    0.00  0.000000  ( 0.000082 -0.000032  0.000655)
 11:    274.10   0.000011    0.05  0.000012  ( 0.000007 -0.000001 -0.003473)
 12:    399.06   0.000206    1.04  0.000161  ( 0.000525 -0.012688  0.000003)
 13:    464.49   0.008609   43.51  0.005784  (-0.075974 -0.003484  0.000009)
 14:    611.46   0.000003    0.02  0.000002  (-0.000008  0.000014  0.001325)
 15:    629.18   0.001831    9.26  0.000908  (-0.004138 -0.029854 -0.000001)
 16:    848.37   0.000136    0.69  0.000050  (-0.001179 -0.006971  0.000001)
 17:    943.03   0.002908   14.69  0.000962  (-0.000037 -0.000098  0.031019)
 18:    959.74   0.002439   12.32  0.000793  (-0.010062 -0.026300 -0.000111)
 19:   1007.40   0.000036    0.18  0.000011  (-0.000002 -0.000002  0.003359)
 20:   1024.11   0.001967    9.94  0.000599  (-0.020948  0.012669  0.000011)
 21:   1109.45   0.000100    0.51  0.000028  (-0.000054 -0.000224 -0.005309)
 22:   1112.53   0.011964   60.46  0.003356  (-0.011760 -0.056723  0.000019)
 23:   1125.86   0.003101   15.67  0.000859  (-0.000009  0.000010 -0.029316)
 24:   1160.53   0.000800    4.04  0.000215  ( 0.005822 -0.013465 -0.000002)
 25:   1174.04   0.000000    0.00  0.000000  (-0.000009 -0.000010  0.000348)
 26:   1193.95   0.025716  129.96  0.006721  (-0.012775 -0.080982  0.000000)
 27:   1232.80   0.003705   18.73  0.000938  ( 0.028744  0.010572  0.000009)
 28:   1263.51   0.000182    0.92  0.000045  ( 0.000053  0.000015 -0.006711)
 29:   1336.67   0.003540   17.89  0.000826  ( 0.000007  0.000073  0.028748)
 30:   1345.90   0.016133   81.53  0.003741  (-0.011103 -0.060144 -0.000014)
 31:   1356.10   0.010754   54.35  0.002475  (-0.005986 -0.049384 -0.000005)
 32:   1384.07   0.006025   30.45  0.001358  (-0.000002 -0.000043  0.036856)
 33:   1459.89   0.012858   64.98  0.002748  ( 0.012625  0.050883 -0.000009)
 34:   1469.57   0.000269    1.36  0.000057  (-0.000120  0.000052  0.007551)
 35:   1470.75   0.008958   45.27  0.001901  (-0.042890  0.007820 -0.000009)
 36:   1471.78   0.000553    2.80  0.000117  ( 0.000049  0.000014  0.010833)
 37:   1489.85   0.006111   30.88  0.001280  ( 0.000003 -0.000007  0.035779)
 38:   1500.47   0.000151    0.76  0.000031  (-0.004186 -0.003733  0.000018)
 39:   1504.76   0.000043    0.22  0.000009  ( 0.002868 -0.000859  0.000001)
 40:   1515.55   0.000001    0.00  0.000000  ( 0.000010  0.000004 -0.000380)
 41:   1615.95   0.007709   38.96  0.001489  (-0.000011 -0.000028 -0.038584)
 42:   1737.78   0.156579  791.29  0.028118  (-0.026894 -0.165513  0.000010)
 43:   3077.60   0.015297   77.30  0.001551  (-0.002484 -0.039304  0.000298)
 44:   3078.71   0.000305    1.54  0.000031  (-0.000158 -0.002383 -0.005020)
 45:   3101.50   0.004538   22.93  0.000457  (-0.005124  0.020743  0.000226)
 46:   3105.30   0.004212   21.29  0.000423  ( 0.000044 -0.000239  0.020572)
 47:   3152.19   0.000265    1.34  0.000026  (-0.000302  0.000004 -0.005116)
 48:   3155.89   0.006730   34.01  0.000665  (-0.025711  0.002086  0.000223)
 49:   3157.24   0.000102    0.51  0.000010  ( 0.001590 -0.000132  0.002742)
 50:   3167.60   0.001548    7.82  0.000153  ( 0.012351 -0.000066 -0.000002)
 51:   3188.46   0.000997    5.04  0.000098  ( 0.001523  0.006250 -0.007496)
 52:   3188.51   0.001126    5.69  0.000110  ( 0.001253  0.005145  0.009063)
 53:   3255.92   0.002224   11.24  0.000213  (-0.000007  0.000001 -0.014601)

--------------------------
THERMOCHEMISTRY AT 298.15K
--------------------------

Temperature         ... 298.15 K
Pressure            ... 1.00 atm
Total Mass          ... 99.16 AMU

Throughout the following assumptions are being made:
  (1) The electronic state is orbitally nondegenerate
  (2) There are no thermally accessible electronically excited states
  (3) Hindered rotations indicated by low frequency modes are not
      treated as such but are treated as vibrations and this may
      cause some error
  (4) All equations used are the standard statistical mechanics
      equations for an ideal gas
  (5) All vibrations are strictly harmonic

freq.      78.02  E(vib)   ...       0.49
freq.     132.28  E(vib)   ...       0.42
freq.     155.92  E(vib)   ...       0.40
freq.     195.99  E(vib)   ...       0.36
freq.     211.25  E(vib)   ...       0.34
freq.     274.10  E(vib)   ...       0.28
freq.     399.06  E(vib)   ...       0.19
freq.     464.49  E(vib)   ...       0.16
freq.     611.46  E(vib)   ...       0.10
freq.     629.18  E(vib)   ...       0.09
freq.     848.37  E(vib)   ...       0.04
freq.     943.03  E(vib)   ...       0.03
freq.     959.74  E(vib)   ...       0.03
freq.    1007.40  E(vib)   ...       0.02
freq.    1024.11  E(vib)   ...       0.02
freq.    1109.45  E(vib)   ...       0.02
freq.    1112.53  E(vib)   ...       0.01
freq.    1125.86  E(vib)   ...       0.01
freq.    1160.53  E(vib)   ...       0.01
freq.    1174.04  E(vib)   ...       0.01
freq.    1193.95  E(vib)   ...       0.01
freq.    1232.80  E(vib)   ...       0.01
freq.    1263.51  E(vib)   ...       0.01
freq.    1336.67  E(vib)   ...       0.01
freq.    1345.90  E(vib)   ...       0.01
freq.    1356.10  E(vib)   ...       0.01
freq.    1384.07  E(vib)   ...       0.00
freq.    1459.89  E(vib)   ...       0.00
freq.    1469.57  E(vib)   ...       0.00
freq.    1470.75  E(vib)   ...       0.00
freq.    1471.78  E(vib)   ...       0.00
freq.    1489.85  E(vib)   ...       0.00
freq.    1500.47  E(vib)   ...       0.00
freq.    1504.76  E(vib)   ...       0.00
freq.    1515.55  E(vib)   ...       0.00
freq.    1615.95  E(vib)   ...       0.00
freq.    1737.78  E(vib)   ...       0.00
freq.    3077.60  E(vib)   ...       0.00
freq.    3078.71  E(vib)   ...       0.00
freq.    3101.50  E(vib)   ...       0.00
freq.    3105.30  E(vib)   ...       0.00
freq.    3152.19  E(vib)   ...       0.00
freq.    3155.89  E(vib)   ...       0.00
freq.    3157.24  E(vib)   ...       0.00
freq.    3167.60  E(vib)   ...       0.00
freq.    3188.46  E(vib)   ...       0.00
freq.    3188.51  E(vib)   ...       0.00
freq.    3255.92  E(vib)   ...       0.00

------------
INNER ENERGY
------------

The inner energy is: U= E(el) + E(ZPE) + E(vib) + E(rot) + E(trans)
    E(el)   - is the total energy from the electronic structure calculation
              = E(kin-el) + E(nuc-el) + E(el-el) + E(nuc-nuc)
    E(ZPE)  - the the zero temperature vibrational energy from the frequency calculation
    E(vib)  - the the finite temperature correction to E(ZPE) due to population
              of excited vibrational states
    E(rot)  - is the rotational thermal energy
    E(trans)- is the translational thermal energy

Summary of contributions to the inner energy U:
Electronic energy                ...   -306.54764011 Eh
Zero point energy                ...      0.16538378 Eh     103.78 kcal/mol
Thermal vibrational correction   ...      0.00496948 Eh       3.12 kcal/mol
Thermal rotational correction    ...      0.00141627 Eh       0.89 kcal/mol
Thermal translational correction ...      0.00141627 Eh       0.89 kcal/mol
-----------------------------------------------------------------------
Total thermal energy                   -306.37445431 Eh

Summary of corrections to the electronic energy:
(perhaps to be used in another calculation)
Total thermal correction                  0.00780202 Eh       4.90 kcal/mol
Non-thermal (ZPE) correction              0.16538378 Eh     103.78 kcal/mol
-----------------------------------------------------------------------
Total correction                          0.17318580 Eh     108.68 kcal/mol

--------
ENTHALPY
--------

The enthalpy is H = U + kB*T
                kB is Boltzmann's constant
Total free energy                 ...   -306.37445431 Eh
Thermal Enthalpy correction       ...      0.00094421 Eh       0.59 kcal/mol
-----------------------------------------------------------------------
Total Enthalpy                    ...   -306.37351010 Eh

Note: Only C1 symmetry has been detected, increase convergence thresholds
      if your molecule has a higher symmetry. Symmetry factor of 1.0 is
      used for the rotational entropy correction.

Note: Rotational entropy computed according to Herzberg
Infrared and Raman Spectra, Chapter V,1, Van Nostrand Reinhold, 1945
Point Group:  C1, Symmetry Number:   1
Rotational constants in cm-1:     0.192070     0.066892     0.051572

Vibrational entropy computed according to the QRRHO of S. Grimme
Chem.Eur.J. 2012 18 9955

-------
ENTROPY
-------

The entropy contributions are T*S = T*(S(el)+S(vib)+S(rot)+S(trans))
     S(el)   - electronic entropy
     S(vib)  - vibrational entropy
     S(rot)  - rotational entropy
     S(trans)- translational entropy
The entropies will be listed as multiplied by the temperature to get
units of energy

Electronic entropy                ...      0.00000000 Eh      0.00 kcal/mol
Vibrational entropy               ...      0.00865889 Eh      5.43 kcal/mol
Rotational entropy                ...      0.01296620 Eh      8.14 kcal/mol
Translational entropy             ...      0.01885925 Eh     11.83 kcal/mol
-----------------------------------------------------------------------
Final entropy term                ...      0.04048434 Eh     25.40 kcal/mol

In case the symmetry of your molecule has not been determined correctly
or in case you have a reason to use a different symmetry number we print
out the resulting rotational entropy values for sn=1,12 :
 --------------------------------------------------------
|  sn= 1 | S(rot)=       0.01296620 Eh      8.14 kcal/mol|
|  sn= 2 | S(rot)=       0.01231174 Eh      7.73 kcal/mol|
|  sn= 3 | S(rot)=       0.01192891 Eh      7.49 kcal/mol|
|  sn= 4 | S(rot)=       0.01165729 Eh      7.32 kcal/mol|
|  sn= 5 | S(rot)=       0.01144660 Eh      7.18 kcal/mol|
|  sn= 6 | S(rot)=       0.01127445 Eh      7.07 kcal/mol|
|  sn= 7 | S(rot)=       0.01112891 Eh      6.98 kcal/mol|
|  sn= 8 | S(rot)=       0.01100283 Eh      6.90 kcal/mol|
|  sn= 9 | S(rot)=       0.01089162 Eh      6.83 kcal/mol|
|  sn=10 | S(rot)=       0.01079214 Eh      6.77 kcal/mol|
|  sn=11 | S(rot)=       0.01070215 Eh      6.72 kcal/mol|
|  sn=12 | S(rot)=       0.01062000 Eh      6.66 kcal/mol|
 --------------------------------------------------------

                             ****ORCA TERMINATED NORMALLY****
TOTAL RUN TIME: 0 days 1 hours 39 minutes 31 seconds 263 msec
