                         Program Version 5.0.4 -  RELEASE  -
|  1> # ORCA 5.0.4 - /users/bwb16179/postgrad/2024_06/pKa_Reviewer_Comments/Gas_Z=1/1_prot.inp # write input file
|  2> # Basic Mode
|  3> #
|  4> ! Opt Freq wB97X Def2-TZVP D4 SlowConv TightSCF Defgrid2 Def2/J RIJCOSX
|  5>
|  6> %PAL NPROCS 4 END
|  7>
|  8> %maxcore 4500
|  9>
| 10> %geom
| 11> Maxiter 150
| 12> END
| 13>
| 14> * xyzfile 1 1 1_prot.xyz
| 15>
| 16>                          ****END OF INPUT****
 Total Charge           Charge          ....    1
 Multiplicity           Mult            ....    1
 Number of Electrons    NEL             ....   52
Dispersion correction           -0.001651528
FINAL SINGLE POINT ENERGY      -305.256674871947
Dispersion correction            ... Starting D4
Dispersion correction           -0.001653830
FINAL SINGLE POINT ENERGY      -305.257441885402
Dispersion correction            ... Starting D4
Dispersion correction           -0.001653893
FINAL SINGLE POINT ENERGY      -305.257446157234
Dispersion correction            ... Starting D4
                    ***********************HURRAY********************

CARTESIAN COORDINATES (ANGSTROEM)
---------------------------------
  C      0.255384    0.520153   -1.458737
  C      0.277675   -0.828453   -1.557158
  N      0.118053    0.824935   -0.125577
  N      0.154599   -1.327843   -0.282777
  C      0.060303   -0.308693    0.560315
  H      0.326539    1.282800   -2.216115
  H      0.368611   -1.470619   -2.417229
  C      0.041604    2.172396    0.434363
  C      0.126309   -2.744112    0.075239
  H     -0.824328    2.685854    0.021549
  H      0.950625    2.718569    0.191287
  H     -0.059712    2.101499    1.514410
  H     -0.047362   -0.389223    1.630520
  H     -0.739358   -3.216878   -0.384275
  H      0.057234   -2.834914    1.156400
  H      1.040455   -3.221661   -0.271005

 Multiplicity           Mult            ....    1
 Number of Electrons    NEL             ....   52
 Basis Dimension        Dim             ....  271

ORBITAL ENERGIES
----------------

  NO   OCC          E(Eh)            E(eV)
   0   2.0000     -14.661550      -398.9611
   1   2.0000     -14.661518      -398.9602
   2   2.0000     -10.528879      -286.5054
   3   2.0000     -10.476402      -285.0774
   4   2.0000     -10.475664      -285.0573
   5   2.0000     -10.465923      -284.7922
   6   2.0000     -10.465903      -284.7917
   7   2.0000      -1.384811       -37.6826
   8   2.0000      -1.261606       -34.3301
   9   2.0000      -1.103952       -30.0401
  10   2.0000      -1.066955       -29.0333
  11   2.0000      -1.003258       -27.3000
  12   2.0000      -0.934978       -25.4420
  13   2.0000      -0.906550       -24.6685
  14   2.0000      -0.846740       -23.0410
  15   2.0000      -0.800761       -21.7898
  16   2.0000      -0.760011       -20.6809
  17   2.0000      -0.754154       -20.5216
  18   2.0000      -0.739503       -20.1229
  19   2.0000      -0.739166       -20.1137
  20   2.0000      -0.727897       -19.8071
  21   2.0000      -0.683211       -18.5911
  22   2.0000      -0.679286       -18.4843
  23   2.0000      -0.677538       -18.4367
  24   2.0000      -0.576824       -15.6962
  25   2.0000      -0.535501       -14.5717
  26   0.0000      -0.101620        -2.7652
  27   0.0000      -0.070777        -1.9259
  28   0.0000      -0.026748        -0.7278
  29   0.0000      -0.015410        -0.4193
  30   0.0000      -0.004925        -0.1340

MULLIKEN ATOMIC CHARGES
-----------------------
   0 C :   -0.071146
   1 C :   -0.071409
   2 N :   -0.087718
   3 N :   -0.087432
   4 C :    0.116204
   5 H :    0.227442
   6 H :    0.227641
   7 C :   -0.286949
   8 C :   -0.287026
   9 H :    0.187312
  10 H :    0.187218
  11 H :    0.161659
  12 H :    0.248036
  13 H :    0.187792
  14 H :    0.161762
  15 H :    0.186613
Sum of atomic charges:    1.0000000

LOEWDIN ATOMIC CHARGES
----------------------
   0 C :   -0.137812
   1 C :   -0.137939
   2 N :    0.260452
   3 N :    0.260446
   4 C :   -0.145257
   5 H :    0.163279
   6 H :    0.163304
   7 C :   -0.213214
   8 C :   -0.213194
   9 H :    0.139633
  10 H :    0.139622
  11 H :    0.138134
  12 H :    0.165130
  13 H :    0.139552
  14 H :    0.138155
  15 H :    0.139710

  Mayer bond orders larger than 0.100000
B(  0-C ,  1-C ) :   1.7277 B(  0-C ,  2-N ) :   1.1575 B(  0-C ,  5-H ) :   0.9192
B(  1-C ,  3-N ) :   1.1575 B(  1-C ,  6-H ) :   0.9190 B(  2-N ,  4-C ) :   1.3944
B(  2-N ,  7-C ) :   0.8614 B(  3-N ,  4-C ) :   1.3946 B(  3-N ,  8-C ) :   0.8612
B(  4-C , 12-H ) :   0.9009 B(  7-C ,  9-H ) :   0.9561 B(  7-C , 10-H ) :   0.9561
B(  7-C , 11-H ) :   0.9590 B(  8-C , 13-H ) :   0.9559 B(  8-C , 14-H ) :   0.9590
B(  8-C , 15-H ) :   0.9564

Dispersion correction           -0.001653873
FINAL SINGLE POINT ENERGY      -305.257446777993

DIPOLE MOMENT
-------------
                                X             Y             Z
Electronic contribution:      0.17461       0.11380      -1.51264
Nuclear contribution   :     -0.21442      -0.14097       1.87120
                        -----------------------------------------
Total Dipole Moment    :     -0.03982      -0.02717       0.35856
                        -----------------------------------------
Magnitude (a.u.)       :      0.36179
Magnitude (Debye)      :      0.91959

Dispersion correction in the Hessian             ... Starting D4

VIBRATIONAL FREQUENCIES
-----------------------

Scaling factor for frequencies =  1.000000000  (already applied!)

   0:         0.00 cm**-1
   1:         0.00 cm**-1
   2:         0.00 cm**-1
   3:         0.00 cm**-1
   4:         0.00 cm**-1
   5:         0.00 cm**-1
   6:        34.38 cm**-1
   7:        53.07 cm**-1
   8:       196.72 cm**-1
   9:       275.27 cm**-1
  10:       281.48 cm**-1
  11:       423.61 cm**-1
  12:       616.79 cm**-1
  13:       647.86 cm**-1
  14:       650.57 cm**-1
  15:       732.77 cm**-1
  16:       787.64 cm**-1
  17:       886.97 cm**-1
  18:       924.06 cm**-1
  19:      1055.90 cm**-1
  20:      1056.97 cm**-1
  21:      1112.46 cm**-1
  22:      1114.71 cm**-1
  23:      1140.21 cm**-1
  24:      1156.27 cm**-1
  25:      1163.89 cm**-1
  26:      1211.62 cm**-1
  27:      1313.07 cm**-1
  28:      1388.91 cm**-1
  29:      1442.67 cm**-1
  30:      1461.98 cm**-1
  31:      1467.26 cm**-1
  32:      1480.81 cm**-1
  33:      1489.14 cm**-1
  34:      1490.94 cm**-1
  35:      1518.99 cm**-1
  36:      1519.90 cm**-1
  37:      1649.94 cm**-1
  38:      1656.36 cm**-1
  39:      3105.46 cm**-1
  40:      3105.68 cm**-1
  41:      3198.04 cm**-1
  42:      3198.26 cm**-1
  43:      3208.33 cm**-1
  44:      3208.61 cm**-1
  45:      3298.20 cm**-1
  46:      3299.87 cm**-1
  47:      3317.81 cm**-1

IR SPECTRUM
-----------

 Mode   freq       eps      Int      T**2         TX        TY        TZ
       cm**-1   L/(mol*cm) km/mol    a.u.
----------------------------------------------------------------------------
  6:     34.38   0.000069    0.35  0.000627  ( 0.025004  0.001009  0.000942)
  7:     53.07   0.000017    0.09  0.000102  (-0.010104  0.000173 -0.000540)
  8:    196.72   0.000896    4.53  0.001421  ( 0.037487  0.000141  0.003982)
  9:    275.27   0.000009    0.04  0.000010  ( 0.000579  0.000211  0.003076)
 10:    281.48   0.000079    0.40  0.000088  (-0.001320 -0.000799  0.009260)
 11:    423.61   0.000023    0.12  0.000017  (-0.000038 -0.004147 -0.000228)
 12:    616.79   0.000261    1.32  0.000132  (-0.000734 -0.000848  0.011445)
 13:    647.86   0.000432    2.18  0.000208  (-0.014340  0.000359 -0.001570)
 14:    650.57   0.004626   23.38  0.002219  (-0.046866 -0.000604 -0.004697)
 15:    732.77   0.001594    8.06  0.000679  ( 0.000041 -0.025986 -0.001918)
 16:    787.64   0.007216   36.47  0.002859  (-0.053204 -0.000103 -0.005336)
 17:    886.97   0.005812   29.37  0.002045  (-0.044986 -0.000209 -0.004587)
 18:    924.06   0.000026    0.13  0.000009  (-0.002943  0.000129 -0.000220)
 19:   1055.90   0.000131    0.66  0.000039  (-0.000083 -0.006210  0.000454)
 20:   1056.97   0.000117    0.59  0.000034  (-0.000404  0.000284  0.005845)
 21:   1112.46   0.000756    3.82  0.000212  ( 0.000955 -0.011069 -0.009421)
 22:   1114.71   0.000779    3.94  0.000218  ( 0.001086  0.010370 -0.010462)
 23:   1140.21   0.001200    6.06  0.000328  ( 0.001731  0.001406 -0.017981)
 24:   1156.27   0.000010    0.05  0.000003  ( 0.000171  0.001655 -0.000158)
 25:   1163.89   0.000007    0.03  0.000002  ( 0.001253  0.000311  0.000318)
 26:   1211.62   0.016454   83.15  0.004238  ( 0.001015 -0.064908 -0.004883)
 27:   1313.07   0.000053    0.27  0.000013  ( 0.000066  0.003543  0.000350)
 28:   1388.91   0.000422    2.13  0.000095  (-0.000941 -0.000802  0.009663)
 29:   1442.67   0.000022    0.11  0.000005  ( 0.000406 -0.002132 -0.000370)
 30:   1461.98   0.001798    9.08  0.000384  (-0.003273 -0.004320  0.018823)
 31:   1467.26   0.001776    8.97  0.000378  ( 0.001665  0.018278  0.006385)
 32:   1480.81   0.001193    6.03  0.000251  (-0.004362 -0.003431  0.014854)
 33:   1489.14   0.001019    5.15  0.000214  (-0.014580  0.000601  0.000836)
 34:   1490.94   0.005634   28.47  0.001179  (-0.033984  0.001038 -0.004822)
 35:   1518.99   0.001638    8.28  0.000337  (-0.000838  0.005464  0.017494)
 36:   1519.90   0.002542   12.85  0.000522  (-0.000683 -0.006669  0.021839)
 37:   1649.94   0.002511   12.69  0.000475  ( 0.002122  0.002139 -0.021583)
 38:   1656.36   0.016838   85.09  0.003172  (-0.000918  0.056151  0.004308)
 39:   3105.46   0.000357    1.81  0.000036  (-0.000379 -0.005108  0.003112)
 40:   3105.68   0.000723    3.65  0.000073  (-0.000396  0.008102  0.002619)
 41:   3198.04   0.000004    0.02  0.000000  ( 0.000555  0.000071  0.000189)
 42:   3198.26   0.000006    0.03  0.000001  (-0.000753 -0.000009 -0.000060)
 43:   3208.33   0.000028    0.14  0.000003  ( 0.000140 -0.000765 -0.001446)
 44:   3208.61   0.000030    0.15  0.000003  ( 0.000151  0.000978 -0.001385)
 45:   3298.20   0.005897   29.80  0.000558  ( 0.002364  0.001684 -0.023442)
 46:   3299.87   0.003438   17.38  0.000325  (-0.000252  0.017977  0.001382)
 47:   3317.81   0.002349   11.87  0.000221  ( 0.001513  0.001005 -0.014753)

--------------------------
THERMOCHEMISTRY AT 298.15K
--------------------------

Temperature         ... 298.15 K
Pressure            ... 1.00 atm
Total Mass          ... 97.14 AMU

Throughout the following assumptions are being made:
  (1) The electronic state is orbitally nondegenerate
  (2) There are no thermally accessible electronically excited states
  (3) Hindered rotations indicated by low frequency modes are not
      treated as such but are treated as vibrations and this may
      cause some error
  (4) All equations used are the standard statistical mechanics
      equations for an ideal gas
  (5) All vibrations are strictly harmonic

freq.      34.38  E(vib)   ...       0.54
freq.      53.07  E(vib)   ...       0.52
freq.     196.72  E(vib)   ...       0.36
freq.     275.27  E(vib)   ...       0.28
freq.     281.48  E(vib)   ...       0.28
freq.     423.61  E(vib)   ...       0.18
freq.     616.79  E(vib)   ...       0.09
freq.     647.86  E(vib)   ...       0.09
freq.     650.57  E(vib)   ...       0.08
freq.     732.77  E(vib)   ...       0.06
freq.     787.64  E(vib)   ...       0.05
freq.     886.97  E(vib)   ...       0.04
freq.     924.06  E(vib)   ...       0.03
freq.    1055.90  E(vib)   ...       0.02
freq.    1056.97  E(vib)   ...       0.02
freq.    1112.46  E(vib)   ...       0.01
freq.    1114.71  E(vib)   ...       0.01
freq.    1140.21  E(vib)   ...       0.01
freq.    1156.27  E(vib)   ...       0.01
freq.    1163.89  E(vib)   ...       0.01
freq.    1211.62  E(vib)   ...       0.01
freq.    1313.07  E(vib)   ...       0.01
freq.    1388.91  E(vib)   ...       0.00
freq.    1442.67  E(vib)   ...       0.00
freq.    1461.98  E(vib)   ...       0.00
freq.    1467.26  E(vib)   ...       0.00
freq.    1480.81  E(vib)   ...       0.00
freq.    1489.14  E(vib)   ...       0.00
freq.    1490.94  E(vib)   ...       0.00
freq.    1518.99  E(vib)   ...       0.00
freq.    1519.90  E(vib)   ...       0.00
freq.    1649.94  E(vib)   ...       0.00
freq.    1656.36  E(vib)   ...       0.00
freq.    3105.46  E(vib)   ...       0.00
freq.    3105.68  E(vib)   ...       0.00
freq.    3198.04  E(vib)   ...       0.00
freq.    3198.26  E(vib)   ...       0.00
freq.    3208.33  E(vib)   ...       0.00
freq.    3208.61  E(vib)   ...       0.00
freq.    3298.20  E(vib)   ...       0.00
freq.    3299.87  E(vib)   ...       0.00
freq.    3317.81  E(vib)   ...       0.00

------------
INNER ENERGY
------------

The inner energy is: U= E(el) + E(ZPE) + E(vib) + E(rot) + E(trans)
    E(el)   - is the total energy from the electronic structure calculation
              = E(kin-el) + E(nuc-el) + E(el-el) + E(nuc-nuc)
    E(ZPE)  - the the zero temperature vibrational energy from the frequency calculation
    E(vib)  - the the finite temperature correction to E(ZPE) due to population
              of excited vibrational states
    E(rot)  - is the rotational thermal energy
    E(trans)- is the translational thermal energy

Summary of contributions to the inner energy U:
Electronic energy                ...   -305.25744678 Eh
Zero point energy                ...      0.14202881 Eh      89.12 kcal/mol
Thermal vibrational correction   ...      0.00440313 Eh       2.76 kcal/mol
Thermal rotational correction    ...      0.00141627 Eh       0.89 kcal/mol
Thermal translational correction ...      0.00141627 Eh       0.89 kcal/mol
-----------------------------------------------------------------------
Total thermal energy                   -305.10818229 Eh

Summary of corrections to the electronic energy:
(perhaps to be used in another calculation)
Total thermal correction                  0.00723567 Eh       4.54 kcal/mol
Non-thermal (ZPE) correction              0.14202881 Eh      89.12 kcal/mol
-----------------------------------------------------------------------
Total correction                          0.14926449 Eh      93.66 kcal/mol

--------
ENTHALPY
--------

The enthalpy is H = U + kB*T
                kB is Boltzmann's constant
Total free energy                 ...   -305.10818229 Eh
Thermal Enthalpy correction       ...      0.00094421 Eh       0.59 kcal/mol
-----------------------------------------------------------------------
Total Enthalpy                    ...   -305.10723808 Eh

Note: Only C1 symmetry has been detected, increase convergence thresholds
      if your molecule has a higher symmetry. Symmetry factor of 1.0 is
      used for the rotational entropy correction.

Note: Rotational entropy computed according to Herzberg
Infrared and Raman Spectra, Chapter V,1, Van Nostrand Reinhold, 1945
Point Group:  C1, Symmetry Number:   1
Rotational constants in cm-1:     0.229754     0.068933     0.054116

Vibrational entropy computed according to the QRRHO of S. Grimme
Chem.Eur.J. 2012 18 9955

-------
ENTROPY
-------

The entropy contributions are T*S = T*(S(el)+S(vib)+S(rot)+S(trans))
     S(el)   - electronic entropy
     S(vib)  - vibrational entropy
     S(rot)  - rotational entropy
     S(trans)- translational entropy
The entropies will be listed as multiplied by the temperature to get
units of energy

Electronic entropy                ...      0.00000000 Eh      0.00 kcal/mol
Vibrational entropy               ...      0.00769743 Eh      4.83 kcal/mol
Rotational entropy                ...      0.01284471 Eh      8.06 kcal/mol
Translational entropy             ...      0.01883016 Eh     11.82 kcal/mol
-----------------------------------------------------------------------
Final entropy term                ...      0.03937230 Eh     24.71 kcal/mol

In case the symmetry of your molecule has not been determined correctly
or in case you have a reason to use a different symmetry number we print
out the resulting rotational entropy values for sn=1,12 :
 --------------------------------------------------------
|  sn= 1 | S(rot)=       0.01284471 Eh      8.06 kcal/mol|
|  sn= 2 | S(rot)=       0.01219025 Eh      7.65 kcal/mol|
|  sn= 3 | S(rot)=       0.01180742 Eh      7.41 kcal/mol|
|  sn= 4 | S(rot)=       0.01153580 Eh      7.24 kcal/mol|
|  sn= 5 | S(rot)=       0.01132511 Eh      7.11 kcal/mol|
|  sn= 6 | S(rot)=       0.01115296 Eh      7.00 kcal/mol|
|  sn= 7 | S(rot)=       0.01100742 Eh      6.91 kcal/mol|
|  sn= 8 | S(rot)=       0.01088134 Eh      6.83 kcal/mol|
|  sn= 9 | S(rot)=       0.01077013 Eh      6.76 kcal/mol|
|  sn=10 | S(rot)=       0.01067065 Eh      6.70 kcal/mol|
|  sn=11 | S(rot)=       0.01058066 Eh      6.64 kcal/mol|
|  sn=12 | S(rot)=       0.01049851 Eh      6.59 kcal/mol|
 --------------------------------------------------------

-------------------
GIBBS FREE ENERGY
-------------------

The Gibbs free energy is G = H - T*S

                             ****ORCA TERMINATED NORMALLY****
TOTAL RUN TIME: 0 days 0 hours 10 minutes 48 seconds 642 msec
