                         Program Version 5.0.3 -  RELEASE  -
|  1> ! Opt FREQ wB97X D4 Def2-SVP SlowConv TightSCF DEFGRID2 Def2/J RIJCOSX
|  2> %MAXCORE 4000
|  3> %scf MaxIter 20000 end
|  4> %geom
|  5> MaxIter 500
|  6> end
|  7> %PAL NPROCS 8 END
|  8>
|  9> * xyz 0 1
| 10> N 0.0751 1.09746 1.08822
| 11> N -0.06227 -1.04921 1.04504
| 12> C 0.23648 0.67451 -0.26156
| 13> C 0.13744 -0.66638 -0.2699
| 14> C -0.10553 0.01947 1.85784
| 15> Cl -0.12437 1.76482 -1.55152
| 16> Cl 0.05068 -1.81594 -1.50696
| 17> C 0.15745 2.48116 1.56431
| 18> C -0.20905 -2.4149 1.56913
| 19> H 0.12595 2.35181 2.64428
| 20> H 0.03024 -2.33275 2.63385
| 21> H -0.70575 3.06654 1.20861
| 22> H -1.21647 -2.88639 1.45338
| 23> H 0.49155 -3.13721 1.09378
| 24> H 1.11314 2.95212 1.29118
| 25> **                         ****END OF INPUT****
 Total Charge           Charge          ....    0
 Multiplicity           Mult            ....    1
 Number of Electrons    NEL             ....   84
Dispersion correction           -0.002549420
FINAL SINGLE POINT ENERGY     -1223.391139133161
Dispersion correction            ... Starting D4
Dispersion correction           -0.002554173
FINAL SINGLE POINT ENERGY     -1223.400743681696
Dispersion correction            ... Starting D4
Dispersion correction           -0.002556135
FINAL SINGLE POINT ENERGY     -1223.404655166950
Dispersion correction            ... Starting D4
FINAL SINGLE POINT ENERGY     -1223.405685883394
FINAL SINGLE POINT ENERGY     -1223.405971595607
FINAL SINGLE POINT ENERGY     -1223.406057434090
FINAL SINGLE POINT ENERGY     -1223.406106112265
FINAL SINGLE POINT ENERGY     -1223.406175583480
FINAL SINGLE POINT ENERGY     -1223.406233467563
FINAL SINGLE POINT ENERGY     -1223.406267403435
Dispersion correction           -0.002555304
FINAL SINGLE POINT ENERGY     -1223.406279802144
Dispersion correction            ... Starting D4
Dispersion correction           -0.002555298
FINAL SINGLE POINT ENERGY     -1223.406280725621
Dispersion correction            ... Starting D4
                    ***********************HURRAY********************

CARTESIAN COORDINATES (ANGSTROEM)
---------------------------------
  N      0.068930    1.071273    1.103197
  N     -0.069675   -1.055655    1.111495
  C      0.038818    0.679582   -0.223543
  C     -0.048345   -0.673829   -0.218186
  C      0.002615    0.010888    1.954857
  Cl     0.102817    1.761902   -1.536823
  Cl    -0.120598   -1.766280   -1.522617
  C      0.163145    2.446717    1.545877
  C     -0.159023   -2.428160    1.564486
  H      0.190685    2.430010    2.641347
  H     -0.190757   -2.403158    2.659685
  H     -0.706777    3.029123    1.207612
  H     -1.071061   -2.906782    1.178384
  H      0.715006   -3.009001    1.234117
  H      1.078810    2.918481    1.159792

 Multiplicity           Mult            ....    1
 Number of Electrons    NEL             ....   84
 Basis Dimension        Dim             ....  164

ORBITAL ENERGIES
----------------

  NO   OCC          E(Eh)            E(eV)
   0   2.0000    -101.501470     -2761.9954
   1   2.0000    -101.501454     -2761.9950
   2   2.0000     -14.468018      -393.6948
   3   2.0000     -14.468002      -393.6943
   4   2.0000     -10.359959      -281.9088
   5   2.0000     -10.359378      -281.8930
   6   2.0000     -10.314856      -280.6815
   7   2.0000     -10.314827      -280.6807
   8   2.0000     -10.286862      -279.9197
   9   2.0000      -9.574033      -260.5227
  10   2.0000      -9.574011      -260.5221
  11   2.0000      -7.343102      -199.8160
  12   2.0000      -7.343093      -199.8157
  13   2.0000      -7.331791      -199.5082
  14   2.0000      -7.331777      -199.5078
  15   2.0000      -7.331765      -199.5075
  16   2.0000      -7.331756      -199.5072
  17   2.0000      -1.175028       -31.9741
  18   2.0000      -1.066542       -29.0221
  19   2.0000      -1.024369       -27.8745
  20   2.0000      -0.990257       -26.9463
  21   2.0000      -0.905889       -24.6505
  22   2.0000      -0.834924       -22.7194
  23   2.0000      -0.811620       -22.0853
  24   2.0000      -0.714803       -19.4508
  25   2.0000      -0.709049       -19.2942
  26   2.0000      -0.640223       -17.4213
  27   2.0000      -0.615502       -16.7487
  28   2.0000      -0.581269       -15.8171
  29   2.0000      -0.568076       -15.4581
  30   2.0000      -0.566368       -15.4117
  31   2.0000      -0.557545       -15.1716
  32   2.0000      -0.519383       -14.1331
  33   2.0000      -0.516024       -14.0417
  34   2.0000      -0.499339       -13.5877
  35   2.0000      -0.468730       -12.7548
  36   2.0000      -0.458640       -12.4802
  37   2.0000      -0.446607       -12.1528
  38   2.0000      -0.443339       -12.0639
  39   2.0000      -0.381543       -10.3823
  40   2.0000      -0.322141        -8.7659
  41   2.0000      -0.318362        -8.6631
  42   0.0000       0.104130         2.8335
  43   0.0000       0.126698         3.4476
  44   0.0000       0.128166         3.4876
  45   0.0000       0.164193         4.4679
  46   0.0000       0.168693         4.5904

MULLIKEN ATOMIC CHARGES
-----------------------
   0 N :   -0.246702
   1 N :   -0.246692
   2 C :    0.088423
   3 C :    0.088485
   4 C :   -0.099542
   5 Cl:   -0.061377
   6 Cl:   -0.061359
   7 C :    0.104890
   8 C :    0.104913
   9 H :    0.065916
  10 H :    0.065908
  11 H :    0.049727
  12 H :    0.048657
  13 H :    0.049940
  14 H :    0.048812
Sum of atomic charges:    0.0000000

LOEWDIN ATOMIC CHARGES
----------------------
   0 N :    0.008917
   1 N :    0.008910
   2 C :   -0.178442
   3 C :   -0.178449
   4 C :   -0.231559
   5 Cl:    0.157111
   6 Cl:    0.157145
   7 C :    0.029044
   8 C :    0.029076
   9 H :    0.042841
  10 H :    0.042832
  11 H :    0.028323
  12 H :    0.027876
  13 H :    0.028414
  14 H :    0.027961

  Mayer bond orders larger than 0.100000
B(  0-N ,  2-C ) :   1.1269 B(  0-N ,  4-C ) :   1.2154 B(  0-N ,  7-C ) :   0.9421
B(  1-N ,  3-C ) :   1.1270 B(  1-N ,  4-C ) :   1.2153 B(  1-N ,  8-C ) :   0.9421
B(  2-C ,  3-C ) :   1.6045 B(  2-C ,  5-Cl) :   1.0775 B(  3-C ,  6-Cl) :   1.0775
B(  7-C ,  9-H ) :   0.9701 B(  7-C , 11-H ) :   0.9786 B(  7-C , 14-H ) :   0.9783
B(  8-C , 10-H ) :   0.9701 B(  8-C , 12-H ) :   0.9783 B(  8-C , 13-H ) :   0.9786

Dispersion correction           -0.002555292
FINAL SINGLE POINT ENERGY     -1223.406280864717

DIPOLE MOMENT
-------------
                                X             Y             Z
Electronic contribution:     -0.05087      -0.05243     -14.03866
Nuclear contribution   :      0.05058       0.05124      13.78676
                        -----------------------------------------
Total Dipole Moment    :     -0.00029      -0.00119      -0.25190
                        -----------------------------------------
Magnitude (a.u.)       :      0.25190
Magnitude (Debye)      :      0.64029

Dispersion correction in the Hessian             ... Starting D4

VIBRATIONAL FREQUENCIES
-----------------------

Scaling factor for frequencies =  1.000000000  (already applied!)

   0:         0.00 cm**-1
   1:         0.00 cm**-1
   2:         0.00 cm**-1
   3:         0.00 cm**-1
   4:         0.00 cm**-1
   5:         0.00 cm**-1
   6:       106.38 cm**-1
   7:       126.99 cm**-1
   8:       138.03 cm**-1
   9:       168.16 cm**-1
  10:       171.93 cm**-1
  11:       236.63 cm**-1
  12:       272.20 cm**-1
  13:       287.88 cm**-1
  14:       323.93 cm**-1
  15:       440.52 cm**-1
  16:       543.13 cm**-1
  17:       580.68 cm**-1
  18:       632.56 cm**-1
  19:       657.06 cm**-1
  20:       665.57 cm**-1
  21:       896.72 cm**-1
  22:      1083.57 cm**-1
  23:      1092.85 cm**-1
  24:      1114.22 cm**-1
  25:      1151.34 cm**-1
  26:      1152.82 cm**-1
  27:      1184.63 cm**-1
  28:      1379.42 cm**-1
  29:      1395.95 cm**-1
  30:      1428.74 cm**-1
  31:      1437.86 cm**-1
  32:      1467.32 cm**-1
  33:      1468.21 cm**-1
  34:      1469.45 cm**-1
  35:      1484.04 cm**-1
  36:      1493.72 cm**-1
  37:      1496.10 cm**-1
  38:      1705.04 cm**-1
  39:      3079.53 cm**-1
  40:      3080.11 cm**-1
  41:      3176.12 cm**-1
  42:      3176.30 cm**-1
  43:      3224.85 cm**-1
  44:      3225.08 cm**-1

IR SPECTRUM
-----------

 Mode   freq       eps      Int      T**2         TX        TY        TZ
       cm**-1   L/(mol*cm) km/mol    a.u.
----------------------------------------------------------------------------
  6:    106.38   0.000000    0.00  0.000000  (-0.000304  0.000036 -0.000018)
  7:    126.99   0.000243    1.23  0.000597  (-0.024348  0.002102  0.000334)
  8:    138.03   0.000005    0.03  0.000012  (-0.003456  0.000480 -0.000267)
  9:    168.16   0.000075    0.38  0.000139  (-0.000408  0.000076  0.011774)
 10:    171.93   0.001105    5.59  0.002007  (-0.044717  0.002631 -0.000084)
 11:    236.63   0.000026    0.13  0.000034  (-0.000451 -0.005791  0.000089)
 12:    272.20   0.000943    4.76  0.001081  ( 0.032823 -0.001842  0.000404)
 13:    287.88   0.001052    5.32  0.001140  ( 0.000376 -0.000147 -0.033763)
 14:    323.93   0.000000    0.00  0.000000  ( 0.000004 -0.000124  0.000166)
 15:    440.52   0.001235    6.24  0.000875  ( 0.002091  0.029498 -0.000120)
 16:    543.13   0.000837    4.23  0.000481  (-0.000104 -0.000143 -0.021935)
 17:    580.68   0.001773    8.96  0.000953  ( 0.001968  0.030802 -0.000176)
 18:    632.56   0.000413    2.09  0.000204  (-0.014253  0.000758 -0.000042)
 19:    657.06   0.000934    4.72  0.000444  ( 0.000053  0.000102  0.021065)
 20:    665.57   0.000000    0.00  0.000000  (-0.000015  0.000028 -0.000379)
 21:    896.72   0.000204    1.03  0.000071  ( 0.000690  0.008401 -0.000042)
 22:   1083.57   0.000522    2.64  0.000150  (-0.000068 -0.000090 -0.012265)
 23:   1092.85   0.000001    0.01  0.000000  (-0.000202 -0.000517 -0.000222)
 24:   1114.22   0.007315   36.97  0.002049  ( 0.000159  0.000153  0.045263)
 25:   1151.34   0.000004    0.02  0.000001  ( 0.000130  0.001025 -0.000007)
 26:   1152.82   0.000000    0.00  0.000000  (-0.000024 -0.000268  0.000081)
 27:   1184.63   0.011080   56.00  0.002919  ( 0.003540  0.053910 -0.000194)
 28:   1379.42   0.002183   11.03  0.000494  (-0.001287 -0.022186  0.000209)
 29:   1395.95   0.000752    3.80  0.000168  (-0.000167 -0.000307 -0.012958)
 30:   1428.74   0.003402   17.19  0.000743  ( 0.000303 -0.027255  0.000204)
 31:   1437.86   0.001234    6.23  0.000268  ( 0.000416 -0.000102 -0.016358)
 32:   1467.32   0.000166    0.84  0.000035  (-0.002675  0.000913 -0.005232)
 33:   1468.21   0.004905   24.79  0.001042  (-0.032078 -0.001797  0.003209)
 34:   1469.45   0.005158   26.07  0.001095  (-0.002584 -0.000505 -0.032993)
 35:   1484.04   0.013877   70.13  0.002918  ( 0.002764  0.053947 -0.000120)
 36:   1493.72   0.008947   45.21  0.001869  (-0.000382 -0.000371 -0.043230)
 37:   1496.10   0.002615   13.21  0.000545  ( 0.000998  0.023323 -0.000638)
 38:   1705.04   0.003259   16.47  0.000597  (-0.000046 -0.000112 -0.024424)
 39:   3079.53   0.012282   62.07  0.001245  (-0.001722 -0.035237  0.000152)
 40:   3080.11   0.000157    0.79  0.000016  ( 0.000151  0.000113  0.003979)
 41:   3176.12   0.001602    8.10  0.000157  (-0.012517  0.000818  0.000308)
 42:   3176.30   0.002360   11.93  0.000232  ( 0.015195 -0.000942  0.000257)
 43:   3224.85   0.000076    0.38  0.000007  (-0.000006 -0.000149  0.002707)
 44:   3225.08   0.000051    0.26  0.000005  ( 0.000101  0.002206  0.000192)

--------------------------
THERMOCHEMISTRY AT 298.15K
--------------------------

Temperature         ... 298.15 K
Pressure            ... 1.00 atm
Total Mass          ... 165.02 AMU

Throughout the following assumptions are being made:
  (1) The electronic state is orbitally nondegenerate
  (2) There are no thermally accessible electronically excited states
  (3) Hindered rotations indicated by low frequency modes are not
      treated as such but are treated as vibrations and this may
      cause some error
  (4) All equations used are the standard statistical mechanics
      equations for an ideal gas
  (5) All vibrations are strictly harmonic

freq.     106.38  E(vib)   ...       0.45
freq.     126.99  E(vib)   ...       0.43
freq.     138.03  E(vib)   ...       0.42
freq.     168.16  E(vib)   ...       0.38
freq.     171.93  E(vib)   ...       0.38
freq.     236.63  E(vib)   ...       0.32
freq.     272.20  E(vib)   ...       0.29
freq.     287.88  E(vib)   ...       0.27
freq.     323.93  E(vib)   ...       0.25
freq.     440.52  E(vib)   ...       0.17
freq.     543.13  E(vib)   ...       0.12
freq.     580.68  E(vib)   ...       0.11
freq.     632.56  E(vib)   ...       0.09
freq.     657.06  E(vib)   ...       0.08
freq.     665.57  E(vib)   ...       0.08
freq.     896.72  E(vib)   ...       0.03
freq.    1083.57  E(vib)   ...       0.02
freq.    1092.85  E(vib)   ...       0.02
freq.    1114.22  E(vib)   ...       0.01
freq.    1151.34  E(vib)   ...       0.01
freq.    1152.82  E(vib)   ...       0.01
freq.    1184.63  E(vib)   ...       0.01
freq.    1379.42  E(vib)   ...       0.01
freq.    1395.95  E(vib)   ...       0.00
freq.    1428.74  E(vib)   ...       0.00
freq.    1437.86  E(vib)   ...       0.00
freq.    1467.32  E(vib)   ...       0.00
freq.    1468.21  E(vib)   ...       0.00
freq.    1469.45  E(vib)   ...       0.00
freq.    1484.04  E(vib)   ...       0.00
freq.    1493.72  E(vib)   ...       0.00
freq.    1496.10  E(vib)   ...       0.00
freq.    1705.04  E(vib)   ...       0.00
freq.    3079.53  E(vib)   ...       0.00
freq.    3080.11  E(vib)   ...       0.00
freq.    3176.12  E(vib)   ...       0.00
freq.    3176.30  E(vib)   ...       0.00
freq.    3224.85  E(vib)   ...       0.00
freq.    3225.08  E(vib)   ...       0.00

------------
INNER ENERGY
------------

The inner energy is: U= E(el) + E(ZPE) + E(vib) + E(rot) + E(trans)
    E(el)   - is the total energy from the electronic structure calculation
              = E(kin-el) + E(nuc-el) + E(el-el) + E(nuc-nuc)
    E(ZPE)  - the the zero temperature vibrational energy from the frequency calculation
    E(vib)  - the the finite temperature correction to E(ZPE) due to population
              of excited vibrational states
    E(rot)  - is the rotational thermal energy
    E(trans)- is the translational thermal energy

Summary of contributions to the inner energy U:
Electronic energy                ...  -1223.40628086 Eh
Zero point energy                ...      0.10984326 Eh      68.93 kcal/mol
Thermal vibrational correction   ...      0.00636809 Eh       4.00 kcal/mol
Thermal rotational correction    ...      0.00141627 Eh       0.89 kcal/mol
Thermal translational correction ...      0.00141627 Eh       0.89 kcal/mol
-----------------------------------------------------------------------
Total thermal energy                  -1223.28723697 Eh

Summary of corrections to the electronic energy:
(perhaps to be used in another calculation)
Total thermal correction                  0.00920063 Eh       5.77 kcal/mol
Non-thermal (ZPE) correction              0.10984326 Eh      68.93 kcal/mol
-----------------------------------------------------------------------
Total correction                          0.11904389 Eh      74.70 kcal/mol

--------
ENTHALPY
--------

The enthalpy is H = U + kB*T
                kB is Boltzmann's constant
Total free energy                 ...  -1223.28723697 Eh
Thermal Enthalpy correction       ...      0.00094421 Eh       0.59 kcal/mol
-----------------------------------------------------------------------
Total Enthalpy                    ...  -1223.28629276 Eh

Note: Only C1 symmetry has been detected, increase convergence thresholds
      if your molecule has a higher symmetry. Symmetry factor of 1.0 is
      used for the rotational entropy correction.

Note: Rotational entropy computed according to Herzberg
Infrared and Raman Spectra, Chapter V,1, Van Nostrand Reinhold, 1945
Point Group:  C1, Symmetry Number:   1
Rotational constants in cm-1:     0.051431     0.036773     0.021620

Vibrational entropy computed according to the QRRHO of S. Grimme
Chem.Eur.J. 2012 18 9955

-------
ENTROPY
-------

The entropy contributions are T*S = T*(S(el)+S(vib)+S(rot)+S(trans))
     S(el)   - electronic entropy
     S(vib)  - vibrational entropy
     S(rot)  - rotational entropy
     S(trans)- translational entropy
The entropies will be listed as multiplied by the temperature to get
units of energy

Electronic entropy                ...      0.00000000 Eh      0.00 kcal/mol
Vibrational entropy               ...      0.01112336 Eh      6.98 kcal/mol
Rotational entropy                ...      0.01428113 Eh      8.96 kcal/mol
Translational entropy             ...      0.01958067 Eh     12.29 kcal/mol
-----------------------------------------------------------------------
Final entropy term                ...      0.04498516 Eh     28.23 kcal/mol

In case the symmetry of your molecule has not been determined correctly
or in case you have a reason to use a different symmetry number we print
out the resulting rotational entropy values for sn=1,12 :
 --------------------------------------------------------
|  sn= 1 | S(rot)=       0.01428113 Eh      8.96 kcal/mol|
|  sn= 2 | S(rot)=       0.01362667 Eh      8.55 kcal/mol|
|  sn= 3 | S(rot)=       0.01324384 Eh      8.31 kcal/mol|
|  sn= 4 | S(rot)=       0.01297221 Eh      8.14 kcal/mol|
|  sn= 5 | S(rot)=       0.01276152 Eh      8.01 kcal/mol|
|  sn= 6 | S(rot)=       0.01258938 Eh      7.90 kcal/mol|
|  sn= 7 | S(rot)=       0.01244383 Eh      7.81 kcal/mol|
|  sn= 8 | S(rot)=       0.01231776 Eh      7.73 kcal/mol|
|  sn= 9 | S(rot)=       0.01220655 Eh      7.66 kcal/mol|
|  sn=10 | S(rot)=       0.01210707 Eh      7.60 kcal/mol|
|  sn=11 | S(rot)=       0.01201708 Eh      7.54 kcal/mol|
|  sn=12 | S(rot)=       0.01193492 Eh      7.49 kcal/mol|
 --------------------------------------------------------

-------------------
GIBBS FREE ENERGY
-------------------

The Gibbs free energy is G = H - T*S

Total enthalpy                    ...  -1223.28629276 Eh
Total entropy correction          ...     -0.04498516 Eh    -28.23 kcal/mol
-----------------------------------------------------------------------

                             ****ORCA TERMINATED NORMALLY****
TOTAL RUN TIME: 0 days 0 hours 6 minutes 26 seconds 715 msec
