                         Program Version 5.0.3 -  RELEASE  -
|  1> # ORCAForces - ../2023_02/pKa_prediction/Yates_carbene_xyzs/Our_level/Uncharged/Gas/2/PhH_Gas.inp
|  2> # Basic Mode
|  3> #
|  4> ! Opt FREQ wB97X D4 Def2-SVP SlowConv TightSCF DEFGRID2 Def2/J RIJCOSX
|  5>
|  6> %maxcore 4500
|  7>
|  8> %PAL NPROCS 4 END
|  9>
| 10> %geom
| 11> Maxiter 150
| 12> END
| 13>
| 14> * xyzfile 0 1 PhH.xyz
| 15>
| 16>                          ****END OF INPUT****
 Total Charge           Charge          ....    0
 Multiplicity           Mult            ....    1
 Number of Electrons    NEL             ....  116
Dispersion correction           -0.005803560
FINAL SINGLE POINT ENERGY      -687.610396468452
Dispersion correction            ... Starting D4
Dispersion correction           -0.005811901
FINAL SINGLE POINT ENERGY      -687.611373965114
Dispersion correction            ... Starting D4
Dispersion correction           -0.005811811
FINAL SINGLE POINT ENERGY      -687.611385209987
Dispersion correction            ... Starting D4
FINAL SINGLE POINT ENERGY      -687.611379225094
Dispersion correction           -0.005812272
FINAL SINGLE POINT ENERGY      -687.611375640389
Dispersion correction            ... Starting D4
Dispersion correction           -0.005812014
FINAL SINGLE POINT ENERGY      -687.611375713849
Dispersion correction            ... Starting D4
                    ***********************HURRAY********************

CARTESIAN COORDINATES (ANGSTROEM)
---------------------------------
  C     -0.000554    0.674673   -1.857656
  C      0.000567   -0.674673   -1.857656
  H     -0.020444    1.376283   -2.687268
  H      0.020465   -1.376284   -2.687267
  C      0.001589    2.415319   -0.070441
  C     -0.483118    2.715809    1.204948
  C      0.487753    3.435217   -0.889778
  C     -0.479549    4.033163    1.650873
  H     -0.845849    1.897970    1.829980
  C      0.477637    4.753671   -0.436736
  H      0.896182    3.206383   -1.876808
  C     -0.004365    5.059030    0.833096
  H     -0.858444    4.261185    2.650919
  H      0.861252    5.546450   -1.084599
  H     -0.007474    6.093201    1.187014
  C     -0.001590   -2.415320   -0.070441
  C      0.483121   -2.715810    1.204946
  C     -0.487761   -3.435216   -0.889776
  C      0.479550   -4.033164    1.650872
  H      0.845857   -1.897972    1.829977
  C     -0.477646   -4.753670   -0.436734
  H     -0.896193   -3.206380   -1.876804
  C      0.004361   -5.059030    0.833096
  H      0.858449   -4.261187    2.650916
  H     -0.861265   -5.546447   -1.084596
  H      0.007469   -6.093200    1.187014
  C     -0.000002    0.000000    0.330837
  N     -0.000829    1.062839   -0.520526
  N      0.000831   -1.062839   -0.520526

 Multiplicity           Mult            ....    1
 Number of Electrons    NEL             ....  116
 Basis Dimension        Dim             ....  298

ORBITAL ENERGIES
----------------

  NO   OCC          E(Eh)            E(eV)
   0   2.0000     -14.465710      -393.6320
   1   2.0000     -14.465709      -393.6320
   2   2.0000     -10.321805      -280.8706
   3   2.0000     -10.321750      -280.8691
   4   2.0000     -10.310845      -280.5724
   5   2.0000     -10.310229      -280.5556
   6   2.0000     -10.284792      -279.8634
   7   2.0000     -10.283320      -279.8234
   8   2.0000     -10.283317      -279.8233
   9   2.0000     -10.282434      -279.7993
  10   2.0000     -10.282432      -279.7992
  11   2.0000     -10.279637      -279.7231
  12   2.0000     -10.279634      -279.7231
  13   2.0000     -10.277066      -279.6532
  14   2.0000     -10.277066      -279.6532
  15   2.0000     -10.274255      -279.5767
  16   2.0000     -10.274251      -279.5766
  17   2.0000      -1.163694       -31.6657
  18   2.0000      -1.063122       -28.9290
  19   2.0000      -0.993017       -27.0214
  20   2.0000      -0.974852       -26.5271
  21   2.0000      -0.910115       -24.7655
  22   2.0000      -0.881721       -23.9929
  23   2.0000      -0.875742       -23.8301
  24   2.0000      -0.863247       -23.4901
  25   2.0000      -0.857774       -23.3412
  26   2.0000      -0.779230       -21.2039
  27   2.0000      -0.761488       -20.7211
  28   2.0000      -0.729714       -19.8565
  29   2.0000      -0.722244       -19.6533
  30   2.0000      -0.693323       -18.8663
  31   2.0000      -0.683705       -18.6045
  32   2.0000      -0.665207       -18.1012
  33   2.0000      -0.639005       -17.3882
  34   2.0000      -0.607859       -16.5407
  35   2.0000      -0.592107       -16.1120
  36   2.0000      -0.583834       -15.8869
  37   2.0000      -0.576084       -15.6760
  38   2.0000      -0.567784       -15.4502
  39   2.0000      -0.562355       -15.3025
  40   2.0000      -0.546768       -14.8783
  41   2.0000      -0.536915       -14.6102
  42   2.0000      -0.534032       -14.5318
  43   2.0000      -0.530658       -14.4399
  44   2.0000      -0.530103       -14.4248
  45   2.0000      -0.508029       -13.8242
  46   2.0000      -0.485408       -13.2086
  47   2.0000      -0.469535       -12.7767
  48   2.0000      -0.464244       -12.6327
  49   2.0000      -0.454549       -12.3689
  50   2.0000      -0.448948       -12.2165
  51   2.0000      -0.434844       -11.8327
  52   2.0000      -0.368584       -10.0297
  53   2.0000      -0.353864        -9.6291
  54   2.0000      -0.353542        -9.6204
  55   2.0000      -0.323696        -8.8082
  56   2.0000      -0.321625        -8.7519
  57   2.0000      -0.317640        -8.6434
  58   0.0000       0.053497         1.4557
  59   0.0000       0.061370         1.6700
  60   0.0000       0.069088         1.8800
  61   0.0000       0.072796         1.9809
  62   0.0000       0.124637         3.3916

MULLIKEN ATOMIC CHARGES
-----------------------
   0 C :    0.048676
   1 C :    0.048680
   2 H :    0.043666
   3 H :    0.043666
   4 C :    0.166158
   5 C :   -0.019121
   6 C :   -0.065602
   7 C :   -0.008399
   8 H :    0.027674
   9 C :   -0.012126
  10 H :    0.000131
  11 C :   -0.003252
  12 H :    0.019645
  13 H :    0.016253
  14 H :    0.015386
  15 C :    0.166158
  16 C :   -0.019115
  17 C :   -0.065609
  18 C :   -0.008402
  19 H :    0.027673
  20 C :   -0.012120
  21 H :    0.000131
  22 C :   -0.003254
  23 H :    0.019646
  24 H :    0.016254
  25 H :    0.015386
  26 C :   -0.073578
  27 N :   -0.192303
  28 N :   -0.192303
Sum of atomic charges:    0.0000000

LOEWDIN ATOMIC CHARGES
----------------------
   0 C :   -0.020191
   1 C :   -0.020190
   2 H :    0.032639
   3 H :    0.032639
   4 C :    0.033436
   5 C :   -0.021314
   6 C :   -0.049459
   7 C :   -0.019611
   8 H :    0.040390
   9 C :   -0.022449
  10 H :    0.029612
  11 C :   -0.037571
  12 H :    0.033960
  13 H :    0.032737
  14 H :    0.031499
  15 C :    0.033436
  16 C :   -0.021314
  17 C :   -0.049458
  18 C :   -0.019611
  19 H :    0.040389
  20 C :   -0.022449
  21 H :    0.029612
  22 C :   -0.037571
  23 H :    0.033960
  24 H :    0.032737
  25 H :    0.031499
  26 C :   -0.205403
  27 N :    0.039022
  28 N :    0.039022

  Mayer bond orders larger than 0.100000
B(  0-C ,  1-C ) :   1.6678 B(  0-C ,  2-H ) :   0.9818 B(  0-C , 27-N ) :   1.0943
B(  1-C ,  3-H ) :   0.9818 B(  1-C , 28-N ) :   1.0943 B(  4-C ,  5-C ) :   1.4131
B(  4-C ,  6-C ) :   1.3929 B(  4-C , 27-N ) :   0.9505 B(  5-C ,  7-C ) :   1.3904
B(  5-C ,  8-H ) :   0.9856 B(  6-C ,  9-C ) :   1.3929 B(  6-C , 10-H ) :   0.9907
B(  7-C , 11-C ) :   1.3845 B(  7-C , 12-H ) :   0.9872 B(  9-C , 11-C ) :   1.4101
B(  9-C , 13-H ) :   0.9855 B( 11-C , 14-H ) :   0.9915 B( 15-C , 16-C ) :   1.4131
B( 15-C , 17-C ) :   1.3929 B( 15-C , 28-N ) :   0.9505 B( 16-C , 18-C ) :   1.3904
B( 16-C , 19-H ) :   0.9856 B( 17-C , 20-C ) :   1.3929 B( 17-C , 21-H ) :   0.9907
B( 18-C , 22-C ) :   1.3845 B( 18-C , 23-H ) :   0.9872 B( 20-C , 22-C ) :   1.4101
B( 20-C , 24-H ) :   0.9855 B( 22-C , 25-H ) :   0.9915 B( 26-C , 27-N ) :   1.2048
B( 26-C , 28-N ) :   1.2048

Dispersion correction           -0.005811970
FINAL SINGLE POINT ENERGY      -687.611376346906

DIPOLE MOMENT
-------------
                                X             Y             Z
Electronic contribution:     -0.00000       0.00000      -0.92798
Nuclear contribution   :      0.00001      -0.00000       0.03736
                        -----------------------------------------
Total Dipole Moment    :      0.00000      -0.00000      -0.89062
                        -----------------------------------------
Magnitude (a.u.)       :      0.89062
Magnitude (Debye)      :      2.26379

Dispersion correction in the Hessian             ... Starting D4

VIBRATIONAL FREQUENCIES
-----------------------

Scaling factor for frequencies =  1.000000000  (already applied!)

   0:         0.00 cm**-1
   1:         0.00 cm**-1
   2:         0.00 cm**-1
   3:         0.00 cm**-1
   4:         0.00 cm**-1
   5:         0.00 cm**-1
   6:        34.64 cm**-1
   7:        36.50 cm**-1
   8:        81.71 cm**-1
   9:        83.67 cm**-1
  10:       132.85 cm**-1
  11:       191.36 cm**-1
  12:       264.70 cm**-1
  13:       284.28 cm**-1
  14:       314.19 cm**-1
  15:       422.58 cm**-1
  16:       426.65 cm**-1
  17:       431.62 cm**-1
  18:       432.85 cm**-1
  19:       500.86 cm**-1
  20:       538.80 cm**-1
  21:       565.81 cm**-1
  22:       631.30 cm**-1
  23:       632.74 cm**-1
  24:       655.20 cm**-1
  25:       660.21 cm**-1
  26:       693.60 cm**-1
  27:       724.55 cm**-1
  28:       724.60 cm**-1
  29:       728.40 cm**-1
  30:       739.11 cm**-1
  31:       801.94 cm**-1
  32:       801.97 cm**-1
  33:       871.06 cm**-1
  34:       872.42 cm**-1
  35:       875.85 cm**-1
  36:       959.54 cm**-1
  37:       959.87 cm**-1
  38:       970.81 cm**-1
  39:       975.16 cm**-1
  40:      1021.01 cm**-1
  41:      1021.21 cm**-1
  42:      1024.58 cm**-1
  43:      1026.08 cm**-1
  44:      1044.87 cm**-1
  45:      1044.92 cm**-1
  46:      1063.59 cm**-1
  47:      1065.68 cm**-1
  48:      1090.35 cm**-1
  49:      1097.78 cm**-1
  50:      1119.55 cm**-1
  51:      1119.75 cm**-1
  52:      1139.40 cm**-1
  53:      1166.11 cm**-1
  54:      1166.19 cm**-1
  55:      1189.87 cm**-1
  56:      1189.95 cm**-1
  57:      1296.54 cm**-1
  58:      1304.11 cm**-1
  59:      1305.74 cm**-1
  60:      1356.11 cm**-1
  61:      1358.21 cm**-1
  62:      1358.94 cm**-1
  63:      1390.91 cm**-1
  64:      1432.49 cm**-1
  65:      1468.18 cm**-1
  66:      1511.53 cm**-1
  67:      1516.67 cm**-1
  68:      1562.65 cm**-1
  69:      1570.36 cm**-1
  70:      1668.70 cm**-1
  71:      1699.00 cm**-1
  72:      1705.16 cm**-1
  73:      1715.02 cm**-1
  74:      1719.06 cm**-1
  75:      3212.48 cm**-1
  76:      3212.54 cm**-1
  77:      3221.31 cm**-1
  78:      3221.34 cm**-1
  79:      3231.92 cm**-1
  80:      3232.04 cm**-1
  81:      3239.04 cm**-1
  82:      3239.12 cm**-1
  83:      3253.71 cm**-1
  84:      3253.77 cm**-1
  85:      3304.41 cm**-1
  86:      3325.90 cm**-1

IR SPECTRUM
-----------

 Mode   freq       eps      Int      T**2         TX        TY        TZ
       cm**-1   L/(mol*cm) km/mol    a.u.
----------------------------------------------------------------------------
  6:     34.64   0.000000    0.00  0.000002  (-0.000003  0.000011 -0.001480)
  7:     36.50   0.000101    0.51  0.000866  ( 0.005001 -0.028994 -0.000000)
  8:     81.71   0.000031    0.16  0.000118  (-0.000007  0.000003  0.010865)
  9:     83.67   0.002149   10.86  0.008017  (-0.079432  0.041318 -0.000001)
 10:    132.85   0.000004    0.02  0.000009  (-0.000000  0.000001 -0.003025)
 11:    191.36   0.000370    1.87  0.000603  (-0.010533 -0.022173 -0.000000)
 12:    264.70   0.000028    0.14  0.000033  (-0.000000  0.000000  0.005752)
 13:    284.28   0.001109    5.60  0.001217  (-0.013167  0.032303 -0.000000)
 14:    314.19   0.000024    0.12  0.000023  (-0.000000 -0.000000 -0.004838)
 15:    422.58   0.000001    0.00  0.000000  (-0.000064  0.000656 -0.000000)
 16:    426.65   0.000006    0.03  0.000004  ( 0.000000  0.000000  0.002074)
 17:    431.62   0.000003    0.01  0.000002  ( 0.000000 -0.000002  0.001393)
 18:    432.85   0.000181    0.91  0.000130  ( 0.000295 -0.011404 -0.000000)
 19:    500.86   0.001275    6.44  0.000795  ( 0.015443 -0.023582 -0.000000)
 20:    538.80   0.000399    2.02  0.000231  ( 0.000000  0.000000  0.015199)
 21:    565.81   0.002823   14.27  0.001557  ( 0.028177  0.027625 -0.000000)
 22:    631.30   0.000209    1.06  0.000103  (-0.000981  0.010125  0.000000)
 23:    632.74   0.000038    0.19  0.000019  ( 0.000000  0.000000 -0.004318)
 24:    655.20   0.000598    3.02  0.000285  (-0.010604  0.013138 -0.000000)
 25:    660.21   0.000278    1.41  0.000131  (-0.000000  0.000000  0.011467)
 26:    693.60   0.000410    2.07  0.000184  ( 0.000000 -0.000000 -0.013579)
 27:    724.55   0.001676    8.47  0.000722  ( 0.000050 -0.000024  0.026865)
 28:    724.60   0.007070   35.73  0.003045  ( 0.050431 -0.022398 -0.000027)
 29:    728.40   0.011293   57.07  0.004838  (-0.041878 -0.055539 -0.000001)
 30:    739.11   0.011535   58.29  0.004870  (-0.068486  0.013413 -0.000000)
 31:    801.94   0.001260    6.37  0.000490  ( 0.000106 -0.000030 -0.022138)
 32:    801.97   0.010678   53.96  0.004155  (-0.062030  0.017525 -0.000037)
 33:    871.06   0.000070    0.35  0.000025  ( 0.000000 -0.000001  0.005007)
 34:    872.42   0.000043    0.22  0.000015  (-0.001545  0.003604  0.000000)
 35:    875.85   0.000000    0.00  0.000000  ( 0.000000  0.000000  0.000354)
 36:    959.54   0.000082    0.41  0.000027  (-0.000016  0.000012  0.005153)
 37:    959.87   0.002014   10.18  0.000655  ( 0.020270 -0.015615  0.000004)
 38:    970.81   0.005279   26.68  0.001697  (-0.004971 -0.040894 -0.000000)
 39:    975.16   0.000182    0.92  0.000058  (-0.000000 -0.000002  0.007624)
 40:   1021.01   0.000111    0.56  0.000034  ( 0.000001 -0.000001  0.005834)
 41:   1021.21   0.000205    1.04  0.000063  (-0.003896  0.006890  0.000001)
 42:   1024.58   0.000075    0.38  0.000023  ( 0.001738 -0.004455 -0.000000)
 43:   1026.08   0.000005    0.03  0.000002  ( 0.000000  0.000000 -0.001274)
 44:   1044.87   0.000305    1.54  0.000091  (-0.004877  0.008202  0.000000)
 45:   1044.92   0.000008    0.04  0.000002  (-0.000001  0.000002 -0.001515)
 46:   1063.59   0.000290    1.46  0.000085  ( 0.000000  0.000001  0.009218)
 47:   1065.68   0.002172   10.97  0.000636  (-0.000716 -0.025208  0.000000)
 48:   1090.35   0.000840    4.24  0.000240  ( 0.000000 -0.000000 -0.015501)
 49:   1097.78   0.002196   11.10  0.000624  (-0.007397 -0.023867  0.000000)
 50:   1119.55   0.001061    5.36  0.000296  ( 0.008080 -0.015185 -0.000027)
 51:   1119.75   0.005681   28.71  0.001583  ( 0.000005 -0.000010  0.039791)
 52:   1139.40   0.000554    2.80  0.000152  (-0.000000  0.000000  0.012319)
 53:   1166.11   0.000078    0.39  0.000021  (-0.000000 -0.000001 -0.004558)
 54:   1166.19   0.000035    0.18  0.000009  ( 0.000201  0.003072 -0.000001)
 55:   1189.87   0.000008    0.04  0.000002  ( 0.000001  0.000002 -0.001441)
 56:   1189.95   0.000095    0.48  0.000025  ( 0.001020  0.004896  0.000000)
 57:   1296.54   0.004506   22.77  0.001085  ( 0.001391 -0.032903  0.000000)
 58:   1304.11   0.001152    5.82  0.000276  ( 0.000000  0.000004 -0.016607)
 59:   1305.74   0.008571   43.31  0.002048  (-0.001216 -0.045243 -0.000002)
 60:   1356.11   0.005865   29.64  0.001350  ( 0.001199  0.036717 -0.000000)
 61:   1358.21   0.000098    0.50  0.000023  (-0.000000 -0.000002 -0.004754)
 62:   1358.94   0.003346   16.91  0.000768  (-0.000153  0.027720 -0.000000)
 63:   1390.91   0.001530    7.73  0.000343  ( 0.000000  0.000000 -0.018530)
 64:   1432.49   0.000138    0.70  0.000030  (-0.000000  0.000000  0.005480)
 65:   1468.18   0.021869  110.52  0.004648  ( 0.000530  0.068176  0.000000)
 66:   1511.53   0.000708    3.58  0.000146  ( 0.006874 -0.009945 -0.000000)
 67:   1516.67   0.000869    4.39  0.000179  (-0.000000  0.000000 -0.013373)
 68:   1562.65   0.066245  334.77  0.013229  ( 0.000335  0.115018  0.000000)
 69:   1570.36   0.002234   11.29  0.000444  (-0.000000 -0.000000  0.021068)
 70:   1668.70   0.001699    8.59  0.000318  ( 0.000000 -0.000000 -0.017827)
 71:   1699.00   0.000996    5.03  0.000183  ( 0.007485  0.011268 -0.000000)
 72:   1705.16   0.000427    2.16  0.000078  (-0.000000  0.000000 -0.008845)
 73:   1715.02   0.027467  138.81  0.004998  ( 0.001079 -0.070688 -0.000000)
 74:   1719.06   0.001894    9.57  0.000344  ( 0.000000  0.000000 -0.018545)
 75:   3212.48   0.000380    1.92  0.000037  ( 0.000176 -0.006074  0.000000)
 76:   3212.54   0.000038    0.19  0.000004  ( 0.000000 -0.000000  0.001930)
 77:   3221.31   0.001348    6.81  0.000131  ( 0.006074  0.009680  0.000005)
 78:   3221.34   0.001446    7.31  0.000140  ( 0.000002  0.000004 -0.011836)
 79:   3231.92   0.003578   18.08  0.000345  (-0.004336  0.018074  0.000012)
 80:   3232.04   0.002733   13.81  0.000264  ( 0.000003 -0.000013  0.016245)
 81:   3239.04   0.001655    8.37  0.000159  (-0.003435 -0.012152  0.000005)
 82:   3239.12   0.000246    1.24  0.000024  ( 0.000004  0.000013  0.004869)
 83:   3253.71   0.000550    2.78  0.000053  (-0.000413  0.007250  0.000003)
 84:   3253.77   0.000011    0.05  0.000001  (-0.000001  0.000025 -0.001015)
 85:   3304.41   0.001300    6.57  0.000123  ( 0.000655 -0.011062  0.000000)
 86:   3325.90   0.000046    0.23  0.000004  ( 0.000000  0.000000 -0.002072)

--------------------------
THERMOCHEMISTRY AT 298.15K
--------------------------

Temperature         ... 298.15 K
Pressure            ... 1.00 atm
Total Mass          ... 220.28 AMU

Throughout the following assumptions are being made:
  (1) The electronic state is orbitally nondegenerate
  (2) There are no thermally accessible electronically excited states
  (3) Hindered rotations indicated by low frequency modes are not
      treated as such but are treated as vibrations and this may
      cause some error
  (4) All equations used are the standard statistical mechanics
      equations for an ideal gas
  (5) All vibrations are strictly harmonic

freq.      34.64  E(vib)   ...       0.54
freq.      36.50  E(vib)   ...       0.54
freq.      81.71  E(vib)   ...       0.48
freq.      83.67  E(vib)   ...       0.48
freq.     132.85  E(vib)   ...       0.42
freq.     191.36  E(vib)   ...       0.36
freq.     264.70  E(vib)   ...       0.29
freq.     284.28  E(vib)   ...       0.28
freq.     314.19  E(vib)   ...       0.25
freq.     422.58  E(vib)   ...       0.18
freq.     426.65  E(vib)   ...       0.18
freq.     431.62  E(vib)   ...       0.18
freq.     432.85  E(vib)   ...       0.17
freq.     500.86  E(vib)   ...       0.14
freq.     538.80  E(vib)   ...       0.12
freq.     565.81  E(vib)   ...       0.11
freq.     631.30  E(vib)   ...       0.09
freq.     632.74  E(vib)   ...       0.09
freq.     655.20  E(vib)   ...       0.08
freq.     660.21  E(vib)   ...       0.08
freq.     693.60  E(vib)   ...       0.07
freq.     724.55  E(vib)   ...       0.06
freq.     724.60  E(vib)   ...       0.06
freq.     728.40  E(vib)   ...       0.06
freq.     739.11  E(vib)   ...       0.06
freq.     801.94  E(vib)   ...       0.05
freq.     801.97  E(vib)   ...       0.05
freq.     871.06  E(vib)   ...       0.04
freq.     872.42  E(vib)   ...       0.04
freq.     875.85  E(vib)   ...       0.04
freq.     959.54  E(vib)   ...       0.03
freq.     959.87  E(vib)   ...       0.03
freq.     970.81  E(vib)   ...       0.03
freq.     975.16  E(vib)   ...       0.03
freq.    1021.01  E(vib)   ...       0.02
freq.    1021.21  E(vib)   ...       0.02
freq.    1024.58  E(vib)   ...       0.02
freq.    1026.08  E(vib)   ...       0.02
freq.    1044.87  E(vib)   ...       0.02
freq.    1044.92  E(vib)   ...       0.02
freq.    1063.59  E(vib)   ...       0.02
freq.    1065.68  E(vib)   ...       0.02
freq.    1090.35  E(vib)   ...       0.02
freq.    1097.78  E(vib)   ...       0.02
freq.    1119.55  E(vib)   ...       0.01
freq.    1119.75  E(vib)   ...       0.01
freq.    1139.40  E(vib)   ...       0.01
freq.    1166.11  E(vib)   ...       0.01
freq.    1166.19  E(vib)   ...       0.01
freq.    1189.87  E(vib)   ...       0.01
freq.    1189.95  E(vib)   ...       0.01
freq.    1296.54  E(vib)   ...       0.01
freq.    1304.11  E(vib)   ...       0.01
freq.    1305.74  E(vib)   ...       0.01
freq.    1356.11  E(vib)   ...       0.01
freq.    1358.21  E(vib)   ...       0.01
freq.    1358.94  E(vib)   ...       0.01
freq.    1390.91  E(vib)   ...       0.00
freq.    1432.49  E(vib)   ...       0.00
freq.    1468.18  E(vib)   ...       0.00
freq.    1511.53  E(vib)   ...       0.00
freq.    1516.67  E(vib)   ...       0.00
freq.    1562.65  E(vib)   ...       0.00
freq.    1570.36  E(vib)   ...       0.00
freq.    1668.70  E(vib)   ...       0.00
freq.    1699.00  E(vib)   ...       0.00
freq.    1705.16  E(vib)   ...       0.00
freq.    1715.02  E(vib)   ...       0.00
freq.    1719.06  E(vib)   ...       0.00
freq.    3212.48  E(vib)   ...       0.00
freq.    3212.54  E(vib)   ...       0.00
freq.    3221.31  E(vib)   ...       0.00
freq.    3221.34  E(vib)   ...       0.00
freq.    3231.92  E(vib)   ...       0.00
freq.    3232.04  E(vib)   ...       0.00
freq.    3239.04  E(vib)   ...       0.00
freq.    3239.12  E(vib)   ...       0.00
freq.    3253.71  E(vib)   ...       0.00
freq.    3253.77  E(vib)   ...       0.00
freq.    3304.41  E(vib)   ...       0.00
freq.    3325.90  E(vib)   ...       0.00

------------
INNER ENERGY
------------

The inner energy is: U= E(el) + E(ZPE) + E(vib) + E(rot) + E(trans)
    E(el)   - is the total energy from the electronic structure calculation
              = E(kin-el) + E(nuc-el) + E(el-el) + E(nuc-nuc)
    E(ZPE)  - the the zero temperature vibrational energy from the frequency calculation
    E(vib)  - the the finite temperature correction to E(ZPE) due to population
              of excited vibrational states
    E(rot)  - is the rotational thermal energy
    E(trans)- is the translational thermal energy

Summary of contributions to the inner energy U:
Electronic energy                ...   -687.61137635 Eh
Zero point energy                ...      0.23578863 Eh     147.96 kcal/mol
Thermal vibrational correction   ...      0.00968105 Eh       6.07 kcal/mol
Thermal rotational correction    ...      0.00141627 Eh       0.89 kcal/mol
Thermal translational correction ...      0.00141627 Eh       0.89 kcal/mol
-----------------------------------------------------------------------
Total thermal energy                   -687.36307412 Eh

Summary of corrections to the electronic energy:
(perhaps to be used in another calculation)
Total thermal correction                  0.01251359 Eh       7.85 kcal/mol
Non-thermal (ZPE) correction              0.23578863 Eh     147.96 kcal/mol
-----------------------------------------------------------------------
Total correction                          0.24830223 Eh     155.81 kcal/mol

--------
ENTHALPY
--------

The enthalpy is H = U + kB*T
                kB is Boltzmann's constant
Total free energy                 ...   -687.36307412 Eh
Thermal Enthalpy correction       ...      0.00094421 Eh       0.59 kcal/mol
-----------------------------------------------------------------------
Total Enthalpy                    ...   -687.36212991 Eh

Note: Rotational entropy computed according to Herzberg
Infrared and Raman Spectra, Chapter V,1, Van Nostrand Reinhold, 1945
Point Group:  C2, Symmetry Number:   2
Rotational constants in cm-1:     0.054641     0.006950     0.006296

Vibrational entropy computed according to the QRRHO of S. Grimme
Chem.Eur.J. 2012 18 9955

-------
ENTROPY
-------

The entropy contributions are T*S = T*(S(el)+S(vib)+S(rot)+S(trans))
     S(el)   - electronic entropy
     S(vib)  - vibrational entropy
     S(rot)  - rotational entropy
     S(trans)- translational entropy
The entropies will be listed as multiplied by the temperature to get

                             ****ORCA TERMINATED NORMALLY****
TOTAL RUN TIME: 0 days 0 hours 17 minutes 53 seconds 78 msec
