                         Program Version 5.0.4 -  RELEASE  -
|  1> # ORCA 5.0.4 - /users/bwb16179/postgrad/2024_03/DFT_Crest_Conformers/Opt/deprot/10_deprot_aq_1.inp # write input file
|  2> # Basic Mode
|  3> #
|  4> ! Opt Freq wB97X Def2-SVP D4 SlowConv TightSCF Defgrid2 Def2/J RIJCOSX CPCM(Water)
|  5>
|  6>
|  7>
|  8> %maxcore 4500
|  9>
| 10> %geom
| 11> Maxiter 150
| 12> END
| 13>
| 14> * xyzfile 0 1 10_deprot_aq_1.xyz
| 15>
| 16>                          ****END OF INPUT****
 Total Charge           Charge          ....    0
 Multiplicity           Mult            ....    1
 Number of Electrons    NEL             ....   62
Dispersion correction           -0.002589737
FINAL SINGLE POINT ENERGY      -344.992192656245
Dispersion correction            ... Starting D4
Dispersion correction           -0.002580218
FINAL SINGLE POINT ENERGY      -344.993569317824
Dispersion correction            ... Starting D4
Dispersion correction           -0.002579470
FINAL SINGLE POINT ENERGY      -344.993660869820
Dispersion correction            ... Starting D4
Dispersion correction           -0.002579215
FINAL SINGLE POINT ENERGY      -344.993696496681
Dispersion correction            ... Starting D4
Dispersion correction           -0.002579178
FINAL SINGLE POINT ENERGY      -344.993698030725
Dispersion correction            ... Starting D4
                    ***********************HURRAY********************

CARTESIAN COORDINATES (ANGSTROEM)
---------------------------------
  N     -1.141164   -0.381509    0.004042
  C      0.000008   -1.086210    0.096274
  N      1.141191   -0.381510    0.004114
  C     -2.411166   -1.077946    0.022970
  C      2.411176   -1.077982    0.022883
  H     -3.042515   -0.734614    0.860931
  H     -2.225397   -2.153577    0.130360
  H     -2.970131   -0.904254   -0.913364
  H      3.042830   -0.734278    0.860458
  H      2.969817   -0.904748   -0.913733
  H      2.225404   -2.153557    0.130826
  C     -1.237090    1.061797   -0.203493
  C      1.237130    1.061791   -0.203432
  C      0.000009    1.752616    0.337119
  H     -2.141465    1.429016    0.307853
  H     -1.367058    1.279431   -1.280479
  H     -0.000023    1.701252    1.438530
  H      0.000018    2.815460    0.054549
  H      1.367153    1.279422   -1.280414
  H      2.141483    1.429008    0.307954

 Multiplicity           Mult            ....    1
 Number of Electrons    NEL             ....   62
 Basis Dimension        Dim             ....  172

ORBITAL ENERGIES
----------------

  NO   OCC          E(Eh)            E(eV)
   0   2.0000     -14.420951      -392.4140
   1   2.0000     -14.420944      -392.4138
   2   2.0000     -10.296167      -280.1729
   3   2.0000     -10.296165      -280.1729
   4   2.0000     -10.288564      -279.9661
   5   2.0000     -10.288542      -279.9654
   6   2.0000     -10.279062      -279.7075
   7   2.0000     -10.269391      -279.4443
   8   2.0000      -1.095499       -29.8100
   9   2.0000      -1.027902       -27.9706
  10   2.0000      -0.911314       -24.7981
  11   2.0000      -0.838783       -22.8244
  12   2.0000      -0.820308       -22.3217
  13   2.0000      -0.749812       -20.4034
  14   2.0000      -0.743520       -20.2322
  15   2.0000      -0.634306       -17.2603
  16   2.0000      -0.606549       -16.5050
  17   2.0000      -0.606287       -16.4979
  18   2.0000      -0.577114       -15.7041
  19   2.0000      -0.561178       -15.2704
  20   2.0000      -0.536587       -14.6013
  21   2.0000      -0.532629       -14.4936
  22   2.0000      -0.514189       -13.9918
  23   2.0000      -0.498292       -13.5592
  24   2.0000      -0.480344       -13.0708
  25   2.0000      -0.464871       -12.6498
  26   2.0000      -0.450655       -12.2629
  27   2.0000      -0.437391       -11.9020
  28   2.0000      -0.406336       -11.0570
  29   2.0000      -0.311367        -8.4727
  30   2.0000      -0.299733        -8.1561
  31   0.0000       0.125480         3.4145
  32   0.0000       0.148672         4.0456
  33   0.0000       0.169033         4.5996
  34   0.0000       0.189576         5.1586
  35   0.0000       0.200144         5.4462

MULLIKEN ATOMIC CHARGES
-----------------------
   0 N :   -0.333379
   1 C :   -0.184028
   2 N :   -0.333385
   3 C :    0.108280
   4 C :    0.108288
   5 H :    0.039617
   6 H :    0.031648
   7 H :    0.035193
   8 H :    0.039612
   9 H :    0.035187
  10 H :    0.031648
  11 C :    0.113467
  12 C :    0.113464
  13 C :   -0.061161
  14 H :    0.041745
  15 H :    0.039806
  16 H :    0.042182
  17 H :    0.050274
  18 H :    0.039800
  19 H :    0.041742
Sum of atomic charges:    0.0000000

LOEWDIN ATOMIC CHARGES
----------------------
   0 N :   -0.055666
   1 C :   -0.271458
   2 N :   -0.055669
   3 C :    0.023117
   4 C :    0.023117
   5 H :    0.021875
   6 H :    0.023371
   7 H :    0.021776
   8 H :    0.021876
   9 H :    0.021772
  10 H :    0.023371
  11 C :    0.033153
  12 C :    0.033152
  13 C :   -0.047006
  14 H :    0.030629
  15 H :    0.024397
  16 H :    0.032229
  17 H :    0.040941
  18 H :    0.024395
  19 H :    0.030628

  Mayer bond orders larger than 0.100000
B(  0-N ,  1-C ) :   1.2862 B(  0-N ,  3-C ) :   0.9755 B(  0-N , 11-C ) :   0.9201
B(  1-C ,  2-N ) :   1.2862 B(  2-N ,  4-C ) :   0.9755 B(  2-N , 12-C ) :   0.9201
B(  3-C ,  5-H ) :   0.9755 B(  3-C ,  6-H ) :   0.9701 B(  3-C ,  7-H ) :   0.9733
B(  4-C ,  8-H ) :   0.9755 B(  4-C ,  9-H ) :   0.9733 B(  4-C , 10-H ) :   0.9701
B( 11-C , 13-C ) :   1.0708 B( 11-C , 14-H ) :   0.9538 B( 11-C , 15-H ) :   0.9555
B( 12-C , 13-C ) :   1.0708 B( 12-C , 18-H ) :   0.9555 B( 12-C , 19-H ) :   0.9538
B( 13-C , 16-H ) :   0.9501 B( 13-C , 17-H ) :   0.9486

Dispersion correction           -0.002579115
FINAL SINGLE POINT ENERGY      -344.993697274553

DIPOLE MOMENT
-------------
                                X             Y             Z
Electronic contribution:     -0.00001      -0.62543       0.10696
Nuclear contribution   :     -0.00002       2.26994      -0.34687
                        -----------------------------------------
Total Dipole Moment    :     -0.00004       1.64451      -0.23990
                        -----------------------------------------
Magnitude (a.u.)       :      1.66191
Magnitude (Debye)      :      4.22425

Dispersion correction in the Hessian             ... Starting D4

VIBRATIONAL FREQUENCIES
-----------------------

Scaling factor for frequencies =  1.000000000  (already applied!)

   0:         0.00 cm**-1
   1:         0.00 cm**-1
   2:         0.00 cm**-1
   3:         0.00 cm**-1
   4:         0.00 cm**-1
   5:         0.00 cm**-1
   6:        97.19 cm**-1
   7:       113.54 cm**-1
   8:       136.46 cm**-1
   9:       204.12 cm**-1
  10:       279.81 cm**-1
  11:       293.76 cm**-1
  12:       329.85 cm**-1
  13:       438.15 cm**-1
  14:       459.33 cm**-1
  15:       485.22 cm**-1
  16:       527.18 cm**-1
  17:       622.16 cm**-1
  18:       810.97 cm**-1
  19:       886.04 cm**-1
  20:       912.54 cm**-1
  21:       950.80 cm**-1
  22:      1040.97 cm**-1
  23:      1075.84 cm**-1
  24:      1086.99 cm**-1
  25:      1114.00 cm**-1
  26:      1120.74 cm**-1
  27:      1143.55 cm**-1
  28:      1159.07 cm**-1
  29:      1210.30 cm**-1
  30:      1240.52 cm**-1
  31:      1275.82 cm**-1
  32:      1278.86 cm**-1
  33:      1333.95 cm**-1
  34:      1352.70 cm**-1
  35:      1395.97 cm**-1
  36:      1412.57 cm**-1
  37:      1419.02 cm**-1
  38:      1429.19 cm**-1
  39:      1444.93 cm**-1
  40:      1450.43 cm**-1
  41:      1452.26 cm**-1
  42:      1460.36 cm**-1
  43:      1460.37 cm**-1
  44:      1466.44 cm**-1
  45:      1475.54 cm**-1
  46:      1509.50 cm**-1
  47:      1598.96 cm**-1
  48:      3038.13 cm**-1
  49:      3040.27 cm**-1
  50:      3043.77 cm**-1
  51:      3048.29 cm**-1
  52:      3087.27 cm**-1
  53:      3117.03 cm**-1
  54:      3117.57 cm**-1
  55:      3122.84 cm**-1
  56:      3125.04 cm**-1
  57:      3161.17 cm**-1
  58:      3202.24 cm**-1
  59:      3202.29 cm**-1

IR SPECTRUM
-----------

 Mode   freq       eps      Int      T**2         TX        TY        TZ
       cm**-1   L/(mol*cm) km/mol    a.u.
----------------------------------------------------------------------------
  6:     97.19   0.000007    0.04  0.000022  ( 0.004741 -0.000028 -0.000117)
  7:    113.54   0.001232    6.23  0.003386  ( 0.000160  0.010050  0.057317)
  8:    136.46   0.000128    0.65  0.000293  (-0.017102  0.000082  0.000484)
  9:    204.12   0.001941    9.81  0.002967  (-0.000030 -0.005470 -0.054199)
 10:    279.81   0.002155   10.89  0.002403  (-0.000010  0.000238 -0.049022)
 11:    293.76   0.000008    0.04  0.000008  (-0.002869  0.000007  0.000055)
 12:    329.85   0.000818    4.13  0.000774  ( 0.000001  0.019949  0.019394)
 13:    438.15   0.000286    1.45  0.000204  ( 0.014278  0.000003  0.000007)
 14:    459.33   0.000121    0.61  0.000083  ( 0.000003 -0.008159 -0.003995)
 15:    485.22   0.005701   28.81  0.003667  (-0.060555  0.000003  0.000004)
 16:    527.18   0.000784    3.96  0.000464  (-0.000012 -0.021507 -0.001260)
 17:    622.16   0.000059    0.30  0.000030  (-0.000001  0.004122  0.003545)
 18:    810.97   0.000778    3.93  0.000299  ( 0.000000 -0.017254 -0.001282)
 19:    886.04   0.001740    8.79  0.000613  (-0.024753 -0.000000  0.000003)
 20:    912.54   0.001344    6.79  0.000460  (-0.021438  0.000000  0.000002)
 21:    950.80   0.000190    0.96  0.000062  (-0.000001  0.000940 -0.007847)
 22:   1040.97   0.005291   26.74  0.001586  (-0.000000 -0.037523  0.013353)
 23:   1075.84   0.000157    0.79  0.000045  (-0.006738  0.000000  0.000003)
 24:   1086.99   0.000330    1.67  0.000095  ( 0.000009  0.009700  0.000857)
 25:   1114.00   0.001623    8.20  0.000455  ( 0.000072 -0.010960 -0.018293)
 26:   1120.74   0.005632   28.46  0.001568  ( 0.039602  0.000017  0.000036)
 27:   1143.55   0.000010    0.05  0.000003  (-0.001621 -0.000003 -0.000025)
 28:   1159.07   0.001369    6.92  0.000369  (-0.000035 -0.006469 -0.018077)
 29:   1210.30   0.000481    2.43  0.000124  (-0.011137 -0.000002  0.000003)
 30:   1240.52   0.017788   89.89  0.004475  (-0.066894  0.000000  0.000003)
 31:   1275.82   0.004806   24.29  0.001176  (-0.000013 -0.031482 -0.013580)
 32:   1278.86   0.003331   16.84  0.000813  (-0.028511  0.000015  0.000008)
 33:   1333.95   0.001126    5.69  0.000263  ( 0.000004  0.013750 -0.008619)
 34:   1352.70   0.017683   89.37  0.004080  (-0.063871  0.000002 -0.000001)
 35:   1395.97   0.012657   63.96  0.002829  (-0.053191  0.000004  0.000003)
 36:   1412.57   0.005341   26.99  0.001180  ( 0.000008  0.034198 -0.003240)
 37:   1419.02   0.007187   36.32  0.001581  ( 0.039756  0.000005 -0.000014)
 38:   1429.19   0.002478   12.52  0.000541  (-0.000019  0.022449 -0.006096)
 39:   1444.93   0.002072   10.47  0.000448  (-0.000034 -0.001094 -0.021126)
 40:   1450.43   0.001675    8.47  0.000360  (-0.018984  0.000052 -0.000190)
 41:   1452.26   0.003454   17.46  0.000742  ( 0.000107  0.004537 -0.026865)
 42:   1460.36   0.006783   34.28  0.001449  ( 0.023714 -0.028666 -0.008088)
 43:   1460.37   0.007184   36.30  0.001535  ( 0.032694  0.020784  0.005847)
 44:   1466.44   0.001932    9.77  0.000411  (-0.020279 -0.000030  0.000003)
 45:   1475.54   0.000090    0.45  0.000019  (-0.000012 -0.002118  0.003810)
 46:   1509.50   0.003721   18.81  0.000769  (-0.000016 -0.025964  0.009757)
 47:   1598.96   0.096794  489.16  0.018891  (-0.137444  0.000003  0.000003)
 48:   3038.13   0.038936  196.77  0.003999  ( 0.063240 -0.000012 -0.000018)
 49:   3040.27   0.002748   13.89  0.000282  ( 0.000052  0.015269 -0.006994)
 50:   3043.77   0.010499   53.06  0.001076  ( 0.032808  0.000015 -0.000029)
 51:   3048.29   0.017201   86.93  0.001761  ( 0.000031 -0.020550  0.036588)
 52:   3087.27   0.003763   19.02  0.000380  ( 0.000002 -0.011556 -0.015711)
 53:   3117.03   0.002104   10.63  0.000211  (-0.014514 -0.000028 -0.000127)
 54:   3117.57   0.025757  130.17  0.002578  (-0.000026  0.008970  0.049978)
 55:   3122.84   0.004317   21.82  0.000431  (-0.020770 -0.000026 -0.000038)
 56:   3125.04   0.003520   17.79  0.000352  (-0.000049  0.012063  0.014352)
 57:   3161.17   0.005270   26.63  0.000520  ( 0.000001  0.015800 -0.016449)
 58:   3202.24   0.004261   21.54  0.000415  (-0.000219  0.020315 -0.001596)
 59:   3202.29   0.000615    3.11  0.000060  (-0.007722 -0.000576  0.000050)

--------------------------
THERMOCHEMISTRY AT 298.15K
--------------------------

Temperature         ... 298.15 K
Pressure            ... 1.00 atm
Total Mass          ... 112.18 AMU

Throughout the following assumptions are being made:
  (1) The electronic state is orbitally nondegenerate
  (2) There are no thermally accessible electronically excited states
  (3) Hindered rotations indicated by low frequency modes are not
      treated as such but are treated as vibrations and this may
      cause some error
  (4) All equations used are the standard statistical mechanics
      equations for an ideal gas
  (5) All vibrations are strictly harmonic

freq.      97.19  E(vib)   ...       0.46
freq.     113.54  E(vib)   ...       0.44
freq.     136.46  E(vib)   ...       0.42
freq.     204.12  E(vib)   ...       0.35
freq.     279.81  E(vib)   ...       0.28
freq.     293.76  E(vib)   ...       0.27
freq.     329.85  E(vib)   ...       0.24
freq.     438.15  E(vib)   ...       0.17
freq.     459.33  E(vib)   ...       0.16
freq.     485.22  E(vib)   ...       0.15
freq.     527.18  E(vib)   ...       0.13
freq.     622.16  E(vib)   ...       0.09
freq.     810.97  E(vib)   ...       0.05
freq.     886.04  E(vib)   ...       0.04
freq.     912.54  E(vib)   ...       0.03
freq.     950.80  E(vib)   ...       0.03
freq.    1040.97  E(vib)   ...       0.02
freq.    1075.84  E(vib)   ...       0.02
freq.    1086.99  E(vib)   ...       0.02
freq.    1114.00  E(vib)   ...       0.01
freq.    1120.74  E(vib)   ...       0.01
freq.    1143.55  E(vib)   ...       0.01
freq.    1159.07  E(vib)   ...       0.01
freq.    1210.30  E(vib)   ...       0.01
freq.    1240.52  E(vib)   ...       0.01
freq.    1275.82  E(vib)   ...       0.01
freq.    1278.86  E(vib)   ...       0.01
freq.    1333.95  E(vib)   ...       0.01
freq.    1352.70  E(vib)   ...       0.01
freq.    1395.97  E(vib)   ...       0.00
freq.    1412.57  E(vib)   ...       0.00
freq.    1419.02  E(vib)   ...       0.00
freq.    1429.19  E(vib)   ...       0.00
freq.    1444.93  E(vib)   ...       0.00
freq.    1450.43  E(vib)   ...       0.00
freq.    1452.26  E(vib)   ...       0.00
freq.    1460.36  E(vib)   ...       0.00
freq.    1460.37  E(vib)   ...       0.00
freq.    1466.44  E(vib)   ...       0.00
freq.    1475.54  E(vib)   ...       0.00
freq.    1509.50  E(vib)   ...       0.00
freq.    1598.96  E(vib)   ...       0.00
freq.    3038.13  E(vib)   ...       0.00
freq.    3040.27  E(vib)   ...       0.00
freq.    3043.77  E(vib)   ...       0.00
freq.    3048.29  E(vib)   ...       0.00
freq.    3087.27  E(vib)   ...       0.00
freq.    3117.03  E(vib)   ...       0.00
freq.    3117.57  E(vib)   ...       0.00
freq.    3122.84  E(vib)   ...       0.00
freq.    3125.04  E(vib)   ...       0.00
freq.    3161.17  E(vib)   ...       0.00
freq.    3202.24  E(vib)   ...       0.00
freq.    3202.29  E(vib)   ...       0.00

------------
INNER ENERGY
------------

The inner energy is: U= E(el) + E(ZPE) + E(vib) + E(rot) + E(trans)
    E(el)   - is the total energy from the electronic structure calculation
              = E(kin-el) + E(nuc-el) + E(el-el) + E(nuc-nuc)
    E(ZPE)  - the the zero temperature vibrational energy from the frequency calculation
    E(vib)  - the the finite temperature correction to E(ZPE) due to population
              of excited vibrational states
    E(rot)  - is the rotational thermal energy
    E(trans)- is the translational thermal energy

Summary of contributions to the inner energy U:
Electronic energy                ...   -344.99369727 Eh
Zero point energy                ...      0.18057178 Eh     113.31 kcal/mol
Thermal vibrational correction   ...      0.00559844 Eh       3.51 kcal/mol
Thermal rotational correction    ...      0.00141627 Eh       0.89 kcal/mol
Thermal translational correction ...      0.00141627 Eh       0.89 kcal/mol
-----------------------------------------------------------------------
Total thermal energy                   -344.80469451 Eh

Summary of corrections to the electronic energy:
(perhaps to be used in another calculation)
Total thermal correction                  0.00843098 Eh       5.29 kcal/mol
Non-thermal (ZPE) correction              0.18057178 Eh     113.31 kcal/mol
-----------------------------------------------------------------------
Total correction                          0.18900276 Eh     118.60 kcal/mol

--------
ENTHALPY
--------

The enthalpy is H = U + kB*T
                kB is Boltzmann's constant
Total free energy                 ...   -344.80469451 Eh
Thermal Enthalpy correction       ...      0.00094421 Eh       0.59 kcal/mol
-----------------------------------------------------------------------
Total Enthalpy                    ...   -344.80375031 Eh

Note: Only C1 symmetry has been detected, increase convergence thresholds
      if your molecule has a higher symmetry. Symmetry factor of 1.0 is
      used for the rotational entropy correction.

Note: Rotational entropy computed according to Herzberg
Infrared and Raman Spectra, Chapter V,1, Van Nostrand Reinhold, 1945
Point Group:  C1, Symmetry Number:   1
Rotational constants in cm-1:     0.111036     0.059437     0.040828

Vibrational entropy computed according to the QRRHO of S. Grimme
Chem.Eur.J. 2012 18 9955

-------
ENTROPY
-------

The entropy contributions are T*S = T*(S(el)+S(vib)+S(rot)+S(trans))
     S(el)   - electronic entropy
     S(vib)  - vibrational entropy
     S(rot)  - rotational entropy
     S(trans)- translational entropy
The entropies will be listed as multiplied by the temperature to get
units of energy

Electronic entropy                ...      0.00000000 Eh      0.00 kcal/mol
Vibrational entropy               ...      0.00952575 Eh      5.98 kcal/mol
Rotational entropy                ...      0.01339098 Eh      8.40 kcal/mol
Translational entropy             ...      0.01903397 Eh     11.94 kcal/mol
-----------------------------------------------------------------------
Final entropy term                ...      0.04195070 Eh     26.32 kcal/mol

In case the symmetry of your molecule has not been determined correctly
or in case you have a reason to use a different symmetry number we print
out the resulting rotational entropy values for sn=1,12 :
 --------------------------------------------------------
|  sn= 1 | S(rot)=       0.01339098 Eh      8.40 kcal/mol|
|  sn= 2 | S(rot)=       0.01273652 Eh      7.99 kcal/mol|
|  sn= 3 | S(rot)=       0.01235369 Eh      7.75 kcal/mol|
|  sn= 4 | S(rot)=       0.01208207 Eh      7.58 kcal/mol|
|  sn= 5 | S(rot)=       0.01187138 Eh      7.45 kcal/mol|
|  sn= 6 | S(rot)=       0.01169924 Eh      7.34 kcal/mol|
|  sn= 7 | S(rot)=       0.01155369 Eh      7.25 kcal/mol|
|  sn= 8 | S(rot)=       0.01142761 Eh      7.17 kcal/mol|
|  sn= 9 | S(rot)=       0.01131640 Eh      7.10 kcal/mol|

                             ****ORCA TERMINATED NORMALLY****
TOTAL RUN TIME: 0 days 0 hours 29 minutes 5 seconds 293 msec
