                         Program Version 5.0.4 -  RELEASE  -
|  1> # ORCA 5.0.4 - /users/bwb16179/postgrad/2024_03/DFT_Crest_Conformers/Opt/prot/10_prot_aq_2.inp # write input file
|  2> # Basic Mode
|  3> #
|  4> ! Opt Freq wB97X Def2-SVP D4 SlowConv TightSCF Defgrid2 Def2/J RIJCOSX CPCM(Water)
|  5>
|  6>
|  7>
|  8> %maxcore 4500
|  9>
| 10> %geom
| 11> Maxiter 150
| 12> END
| 13>
| 14> * xyzfile 1 1 10_prot_aq_2.xyz
| 15>
| 16>                          ****END OF INPUT****
 Total Charge           Charge          ....    1
 Multiplicity           Mult            ....    1
 Number of Electrons    NEL             ....   62
Dispersion correction           -0.002469839
FINAL SINGLE POINT ENERGY      -345.504174973863
Dispersion correction            ... Starting D4
Dispersion correction           -0.002463356
FINAL SINGLE POINT ENERGY      -345.505590433383
Dispersion correction            ... Starting D4
Dispersion correction           -0.002462348
FINAL SINGLE POINT ENERGY      -345.505738305287
Dispersion correction            ... Starting D4
FINAL SINGLE POINT ENERGY      -345.505823907870
FINAL SINGLE POINT ENERGY      -345.505871084422
FINAL SINGLE POINT ENERGY      -345.506053822507
FINAL SINGLE POINT ENERGY      -345.506145805916
FINAL SINGLE POINT ENERGY      -345.505240896116
FINAL SINGLE POINT ENERGY      -345.506635138340
FINAL SINGLE POINT ENERGY      -345.506905491919
FINAL SINGLE POINT ENERGY      -345.507275733712
FINAL SINGLE POINT ENERGY      -345.507712200075
FINAL SINGLE POINT ENERGY      -345.508138654681
FINAL SINGLE POINT ENERGY      -345.508410923759
FINAL SINGLE POINT ENERGY      -345.508457431487
FINAL SINGLE POINT ENERGY      -345.508449660368
Dispersion correction           -0.002463335
FINAL SINGLE POINT ENERGY      -345.508460693391
Dispersion correction            ... Starting D4
Dispersion correction           -0.002463345
FINAL SINGLE POINT ENERGY      -345.508464266824
Dispersion correction            ... Starting D4
                    ***********************HURRAY********************

CARTESIAN COORDINATES (ANGSTROEM)
---------------------------------
  N     -1.161391   -0.355707   -0.014478
  C      0.001104   -0.953819    0.122718
  N      1.166030   -0.351480    0.033339
  H     -0.001207   -2.029874    0.325003
  C     -2.408285   -1.103721    0.051638
  C      2.412454   -1.094470    0.145714
  H     -2.965279   -0.973597   -0.887805
  H     -3.021629   -0.735666    0.887176
  H     -2.195868   -2.170080    0.198573
  H      2.199730   -2.161977    0.283839
  H      2.992312   -0.723525    1.003541
  H      3.003707   -0.961016   -0.772157
  C     -1.242225    1.079093   -0.292936
  C      1.253621    1.084450   -0.237413
  C     -0.007084    1.784782    0.239883
  H     -2.153418    1.461227    0.188767
  H     -1.350921    1.222054   -1.381261
  H     -0.031840    1.792149    1.341152
  H     -0.001619    2.829236   -0.100044
  H      1.411923    1.230794   -1.319171
  H      2.140203    1.468470    0.286871

 Multiplicity           Mult            ....    1
 Number of Electrons    NEL             ....   62
 Basis Dimension        Dim             ....  177

ORBITAL ENERGIES
----------------

  NO   OCC          E(Eh)            E(eV)
   0   2.0000     -14.482064      -394.0770
   1   2.0000     -14.482027      -394.0760
   2   2.0000     -10.397588      -282.9327
   3   2.0000     -10.323946      -280.9288
   4   2.0000     -10.323922      -280.9282
   5   2.0000     -10.318121      -280.7703
   6   2.0000     -10.318103      -280.7698
   7   2.0000     -10.288731      -279.9706
   8   2.0000      -1.164087       -31.6764
   9   2.0000      -1.086720       -29.5712
  10   2.0000      -0.946109       -25.7449
  11   2.0000      -0.888331       -24.1727
  12   2.0000      -0.855416       -23.2770
  13   2.0000      -0.804782       -21.8992
  14   2.0000      -0.790750       -21.5174
  15   2.0000      -0.680395       -18.5145
  16   2.0000      -0.658583       -17.9209
  17   2.0000      -0.650865       -17.7109
  18   2.0000      -0.623979       -16.9793
  19   2.0000      -0.592391       -16.1198
  20   2.0000      -0.577512       -15.7149
  21   2.0000      -0.567248       -15.4356
  22   2.0000      -0.562994       -15.3199
  23   2.0000      -0.529264       -14.4020
  24   2.0000      -0.524516       -14.2728
  25   2.0000      -0.515130       -14.0174
  26   2.0000      -0.493305       -13.4235
  27   2.0000      -0.475625       -12.9424
  28   2.0000      -0.467713       -12.7271
  29   2.0000      -0.450390       -12.2557
  30   2.0000      -0.356923        -9.7124
  31   0.0000       0.063237         1.7208
  32   0.0000       0.133496         3.6326
  33   0.0000       0.161357         4.3908
  34   0.0000       0.164212         4.4684
  35   0.0000       0.182812         4.9746

MULLIKEN ATOMIC CHARGES
-----------------------
   0 N :   -0.317040
   1 C :    0.253131
   2 N :   -0.317052
   3 H :    0.123506
   4 C :    0.078659
   5 C :    0.078620
   6 H :    0.078143
   7 H :    0.081828
   8 H :    0.082245
   9 H :    0.082346
  10 H :    0.081730
  11 H :    0.078172
  12 C :    0.118611
  13 C :    0.118911
  14 C :   -0.088060
  15 H :    0.077564
  16 H :    0.080976
  17 H :    0.070281
  18 H :    0.079021
  19 H :    0.080939
  20 H :    0.077471
Sum of atomic charges:    1.0000000

LOEWDIN ATOMIC CHARGES
----------------------
   0 N :    0.014371
   1 C :    0.172669
   2 N :    0.014435
   3 H :    0.069156
   4 C :    0.049877
   5 C :    0.049844
   6 H :    0.043868
   7 H :    0.043502
   8 H :    0.048372
   9 H :    0.048363
  10 H :    0.043494
  11 H :    0.043917
  12 C :    0.055878
  13 C :    0.055928
  14 C :   -0.040688
  15 H :    0.049115
  16 H :    0.044300
  17 H :    0.043962
  18 H :    0.056268
  19 H :    0.044300
  20 H :    0.049069

  Mayer bond orders larger than 0.100000
B(  0-N ,  1-C ) :   1.4260 B(  0-N ,  4-C ) :   0.9234 B(  0-N , 12-C ) :   0.8994
B(  1-C ,  2-N ) :   1.4261 B(  1-C ,  3-H ) :   0.9588 B(  2-N ,  5-C ) :   0.9234
B(  2-N , 13-C ) :   0.8994 B(  4-C ,  6-H ) :   0.9722 B(  4-C ,  7-H ) :   0.9736
B(  4-C ,  8-H ) :   0.9708 B(  5-C ,  9-H ) :   0.9708 B(  5-C , 10-H ) :   0.9736
B(  5-C , 11-H ) :   0.9721 B( 12-C , 14-C ) :   1.0704 B( 12-C , 15-H ) :   0.9510
B( 12-C , 16-H ) :   0.9565 B( 13-C , 14-C ) :   1.0705 B( 13-C , 19-H ) :   0.9565
B( 13-C , 20-H ) :   0.9510 B( 14-C , 17-H ) :   0.9489 B( 14-C , 18-H ) :   0.9441

Dispersion correction           -0.002463310
FINAL SINGLE POINT ENERGY      -345.508463852526

DIPOLE MOMENT
-------------
                                X             Y             Z
Electronic contribution:     -0.00082      -0.81469       0.01096
Nuclear contribution   :      0.00225       0.23876      -0.02155
                        -----------------------------------------
Total Dipole Moment    :      0.00143      -0.57594      -0.01059
                        -----------------------------------------
Magnitude (a.u.)       :      0.57603
Magnitude (Debye)      :      1.46416

Dispersion correction in the Hessian             ... Starting D4

VIBRATIONAL FREQUENCIES
-----------------------

Scaling factor for frequencies =  1.000000000  (already applied!)

   0:         0.00 cm**-1
   1:         0.00 cm**-1
   2:         0.00 cm**-1
   3:         0.00 cm**-1
   4:         0.00 cm**-1
   5:         0.00 cm**-1
   6:        94.37 cm**-1
   7:       118.09 cm**-1
   8:       129.03 cm**-1
   9:       184.99 cm**-1
  10:       271.29 cm**-1
  11:       293.54 cm**-1
  12:       314.08 cm**-1
  13:       421.84 cm**-1
  14:       456.94 cm**-1
  15:       477.21 cm**-1
  16:       530.92 cm**-1
  17:       623.50 cm**-1
  18:       808.87 cm**-1
  19:       882.08 cm**-1
  20:       915.83 cm**-1
  21:       940.64 cm**-1
  22:      1011.50 cm**-1
  23:      1044.51 cm**-1
  24:      1071.48 cm**-1
  25:      1121.80 cm**-1
  26:      1122.97 cm**-1
  27:      1133.38 cm**-1
  28:      1135.66 cm**-1
  29:      1157.37 cm**-1
  30:      1204.98 cm**-1
  31:      1236.96 cm**-1
  32:      1273.59 cm**-1
  33:      1280.63 cm**-1
  34:      1340.09 cm**-1
  35:      1352.49 cm**-1
  36:      1404.75 cm**-1
  37:      1418.73 cm**-1
  38:      1427.01 cm**-1
  39:      1440.85 cm**-1
  40:      1441.74 cm**-1
  41:      1443.56 cm**-1
  42:      1447.39 cm**-1
  43:      1454.19 cm**-1
  44:      1460.77 cm**-1
  45:      1462.58 cm**-1
  46:      1472.24 cm**-1
  47:      1487.79 cm**-1
  48:      1587.45 cm**-1
  49:      1798.08 cm**-1
  50:      3079.18 cm**-1
  51:      3080.24 cm**-1
  52:      3088.64 cm**-1
  53:      3091.39 cm**-1
  54:      3105.64 cm**-1
  55:      3168.23 cm**-1
  56:      3169.47 cm**-1
  57:      3183.09 cm**-1
  58:      3183.21 cm**-1
  59:      3184.50 cm**-1
  60:      3217.45 cm**-1
  61:      3217.85 cm**-1
  62:      3243.61 cm**-1

IR SPECTRUM
-----------

 Mode   freq       eps      Int      T**2         TX        TY        TZ
       cm**-1   L/(mol*cm) km/mol    a.u.
----------------------------------------------------------------------------
  6:     94.37   0.000001    0.00  0.000002  ( 0.001371 -0.000068 -0.000571)
  7:    118.09   0.000292    1.48  0.000772  (-0.002801  0.006981  0.026744)
  8:    129.03   0.000053    0.27  0.000129  (-0.010267 -0.000885 -0.004739)
  9:    184.99   0.001202    6.08  0.002029  (-0.000156  0.011560  0.043530)
 10:    271.29   0.000033    0.17  0.000038  ( 0.000049  0.001695  0.005948)
 11:    293.54   0.000028    0.14  0.000030  (-0.005449  0.000241  0.000342)
 12:    314.08   0.000004    0.02  0.000004  (-0.000070  0.001688  0.001098)
 13:    421.84   0.000018    0.09  0.000013  ( 0.003659  0.000020 -0.000143)
 14:    456.94   0.006514   32.92  0.004449  (-0.001727  0.010643  0.065821)
 15:    477.21   0.001313    6.63  0.000859  (-0.029284 -0.000037 -0.001002)
 16:    530.92   0.001925    9.73  0.001132  ( 0.000788 -0.012679 -0.031147)
 17:    623.50   0.000033    0.16  0.000016  ( 0.000050  0.002370 -0.003266)
 18:    808.87   0.000221    1.11  0.000085  ( 0.000220 -0.005058 -0.007709)
 19:    882.08   0.000398    2.01  0.000141  (-0.011869  0.000055 -0.000142)
 20:    915.83   0.000045    0.23  0.000015  (-0.003893  0.000059 -0.000188)
 21:    940.64   0.000333    1.68  0.000110  ( 0.000309  0.001480 -0.010395)
 22:   1011.50   0.000508    2.57  0.000157  ( 0.000566  0.004882 -0.011518)
 23:   1044.51   0.005829   29.46  0.001741  (-0.000243 -0.037843  0.017586)
 24:   1071.48   0.000161    0.82  0.000047  (-0.006849  0.000266 -0.000244)
 25:   1121.80   0.001102    5.57  0.000307  ( 0.000741  0.014048 -0.010422)
 26:   1122.97   0.002744   13.87  0.000763  (-0.000722 -0.021908 -0.016798)
 27:   1133.38   0.005049   25.51  0.001390  (-0.037278  0.000407 -0.000477)
 28:   1135.66   0.000910    4.60  0.000250  ( 0.015794 -0.000767  0.000039)
 29:   1157.37   0.000296    1.50  0.000080  ( 0.000233  0.004231  0.007864)
 30:   1204.98   0.015774   79.72  0.004085  ( 0.063903  0.000154  0.001196)
 31:   1236.96   0.012676   64.06  0.003198  ( 0.056540  0.000062  0.001157)
 32:   1273.59   0.000836    4.22  0.000205  (-0.013958 -0.002780 -0.001494)
 33:   1280.63   0.007025   35.50  0.001712  (-0.001752  0.038920  0.013933)
 34:   1340.09   0.002392   12.09  0.000557  ( 0.000207  0.021439 -0.009867)
 35:   1352.49   0.010393   52.52  0.002398  ( 0.048952  0.000725  0.001096)
 36:   1404.75   0.004997   25.25  0.001110  (-0.033313 -0.000146 -0.000630)
 37:   1418.73   0.003754   18.97  0.000826  (-0.028708 -0.001089 -0.000608)
 38:   1427.01   0.006843   34.58  0.001497  ( 0.000818 -0.037263  0.010360)
 39:   1440.85   0.006555   33.13  0.001420  ( 0.002254  0.005117  0.037262)
 40:   1441.74   0.008383   42.37  0.001815  (-0.034509  0.002816  0.024815)
 41:   1443.56   0.010277   51.94  0.002222  ( 0.043303  0.003081  0.018357)
 42:   1447.39   0.001484    7.50  0.000320  (-0.001506  0.017021  0.005290)
 43:   1454.19   0.000054    0.27  0.000012  (-0.001845  0.002714 -0.000913)
 44:   1460.77   0.000081    0.41  0.000017  ( 0.004158 -0.000194 -0.000171)
 45:   1462.58   0.007009   35.42  0.001496  (-0.001371  0.038639  0.000825)
 46:   1472.24   0.000511    2.58  0.000108  (-0.000854  0.009894  0.003105)
 47:   1487.79   0.006180   31.23  0.001296  (-0.035989 -0.000912 -0.000494)
 48:   1587.45   0.009293   46.97  0.001827  (-0.000003  0.040699 -0.013058)
 49:   1798.08   0.192170  971.15  0.033352  ( 0.182587  0.000411  0.003709)
 50:   3079.18   0.012217   61.74  0.001238  (-0.035174  0.000622 -0.000699)
 51:   3080.24   0.001149    5.81  0.000116  ( 0.002421  0.010367 -0.001764)
 52:   3088.64   0.003887   19.64  0.000393  (-0.019808 -0.000020 -0.000593)
 53:   3091.39   0.004469   22.58  0.000451  ( 0.000554  0.011910 -0.017578)
 54:   3105.64   0.002747   13.88  0.000276  (-0.000349  0.006712  0.015193)
 55:   3168.23   0.000971    4.91  0.000096  ( 0.009159  0.001382  0.003134)
 56:   3169.47   0.002126   10.75  0.000209  ( 0.002303 -0.006512 -0.012714)
 57:   3183.09   0.003200   16.17  0.000314  ( 0.000311 -0.000672 -0.017696)
 58:   3183.21   0.000043    0.22  0.000004  ( 0.000084 -0.000012 -0.002057)
 59:   3184.50   0.000594    3.00  0.000058  ( 0.000171  0.005573 -0.005211)
 60:   3217.45   0.000530    2.68  0.000051  ( 0.005093  0.005027 -0.000497)
 61:   3217.85   0.000558    2.82  0.000054  (-0.004621  0.005662 -0.000855)
 62:   3243.61   0.000608    3.07  0.000058  (-0.000077 -0.007289  0.002311)

--------------------------
THERMOCHEMISTRY AT 298.15K
--------------------------

Temperature         ... 298.15 K
Pressure            ... 1.00 atm
Total Mass          ... 113.18 AMU

Throughout the following assumptions are being made:
  (1) The electronic state is orbitally nondegenerate
  (2) There are no thermally accessible electronically excited states
  (3) Hindered rotations indicated by low frequency modes are not
      treated as such but are treated as vibrations and this may
      cause some error
  (4) All equations used are the standard statistical mechanics
      equations for an ideal gas
  (5) All vibrations are strictly harmonic

freq.      94.37  E(vib)   ...       0.47
freq.     118.09  E(vib)   ...       0.44
freq.     129.03  E(vib)   ...       0.43
freq.     184.99  E(vib)   ...       0.37
freq.     271.29  E(vib)   ...       0.29
freq.     293.54  E(vib)   ...       0.27
freq.     314.08  E(vib)   ...       0.25
freq.     421.84  E(vib)   ...       0.18
freq.     456.94  E(vib)   ...       0.16
freq.     477.21  E(vib)   ...       0.15
freq.     530.92  E(vib)   ...       0.13
freq.     623.50  E(vib)   ...       0.09
freq.     808.87  E(vib)   ...       0.05
freq.     882.08  E(vib)   ...       0.04
freq.     915.83  E(vib)   ...       0.03
freq.     940.64  E(vib)   ...       0.03
freq.    1011.50  E(vib)   ...       0.02
freq.    1044.51  E(vib)   ...       0.02
freq.    1071.48  E(vib)   ...       0.02
freq.    1121.80  E(vib)   ...       0.01
freq.    1122.97  E(vib)   ...       0.01
freq.    1133.38  E(vib)   ...       0.01
freq.    1135.66  E(vib)   ...       0.01
freq.    1157.37  E(vib)   ...       0.01
freq.    1204.98  E(vib)   ...       0.01
freq.    1236.96  E(vib)   ...       0.01
freq.    1273.59  E(vib)   ...       0.01
freq.    1280.63  E(vib)   ...       0.01
freq.    1340.09  E(vib)   ...       0.01
freq.    1352.49  E(vib)   ...       0.01
freq.    1404.75  E(vib)   ...       0.00
freq.    1418.73  E(vib)   ...       0.00
freq.    1427.01  E(vib)   ...       0.00
freq.    1440.85  E(vib)   ...       0.00
freq.    1441.74  E(vib)   ...       0.00
freq.    1443.56  E(vib)   ...       0.00
freq.    1447.39  E(vib)   ...       0.00
freq.    1454.19  E(vib)   ...       0.00
freq.    1460.77  E(vib)   ...       0.00
freq.    1462.58  E(vib)   ...       0.00
freq.    1472.24  E(vib)   ...       0.00
freq.    1487.79  E(vib)   ...       0.00
freq.    1587.45  E(vib)   ...       0.00
freq.    1798.08  E(vib)   ...       0.00
freq.    3079.18  E(vib)   ...       0.00
freq.    3080.24  E(vib)   ...       0.00
freq.    3088.64  E(vib)   ...       0.00
freq.    3091.39  E(vib)   ...       0.00
freq.    3105.64  E(vib)   ...       0.00
freq.    3168.23  E(vib)   ...       0.00
freq.    3169.47  E(vib)   ...       0.00
freq.    3183.09  E(vib)   ...       0.00
freq.    3183.21  E(vib)   ...       0.00
freq.    3184.50  E(vib)   ...       0.00
freq.    3217.45  E(vib)   ...       0.00
freq.    3217.85  E(vib)   ...       0.00
freq.    3243.61  E(vib)   ...       0.00

------------
INNER ENERGY
------------

The inner energy is: U= E(el) + E(ZPE) + E(vib) + E(rot) + E(trans)
    E(el)   - is the total energy from the electronic structure calculation
              = E(kin-el) + E(nuc-el) + E(el-el) + E(nuc-nuc)
    E(ZPE)  - the the zero temperature vibrational energy from the frequency calculation
    E(vib)  - the the finite temperature correction to E(ZPE) due to population
              of excited vibrational states
    E(rot)  - is the rotational thermal energy
    E(trans)- is the translational thermal energy

Summary of contributions to the inner energy U:
Electronic energy                ...   -345.50846385 Eh
Zero point energy                ...      0.19526240 Eh     122.53 kcal/mol
Thermal vibrational correction   ...      0.00572443 Eh       3.59 kcal/mol
Thermal rotational correction    ...      0.00141627 Eh       0.89 kcal/mol
Thermal translational correction ...      0.00141627 Eh       0.89 kcal/mol
-----------------------------------------------------------------------
Total thermal energy                   -345.30464448 Eh

Summary of corrections to the electronic energy:
(perhaps to be used in another calculation)
Total thermal correction                  0.00855697 Eh       5.37 kcal/mol
Non-thermal (ZPE) correction              0.19526240 Eh     122.53 kcal/mol
-----------------------------------------------------------------------
Total correction                          0.20381937 Eh     127.90 kcal/mol

--------
ENTHALPY
--------

The enthalpy is H = U + kB*T
                kB is Boltzmann's constant
Total free energy                 ...   -345.30464448 Eh
Thermal Enthalpy correction       ...      0.00094421 Eh       0.59 kcal/mol
-----------------------------------------------------------------------
Total Enthalpy                    ...   -345.30370028 Eh

Note: Only C1 symmetry has been detected, increase convergence thresholds
      if your molecule has a higher symmetry. Symmetry factor of 1.0 is
      used for the rotational entropy correction.

Note: Rotational entropy computed according to Herzberg
Infrared and Raman Spectra, Chapter V,1, Van Nostrand Reinhold, 1945
Point Group:  C1, Symmetry Number:   1
Rotational constants in cm-1:     0.107454     0.059056     0.040175

Vibrational entropy computed according to the QRRHO of S. Grimme
Chem.Eur.J. 2012 18 9955

-------
ENTROPY
-------

The entropy contributions are T*S = T*(S(el)+S(vib)+S(rot)+S(trans))
     S(el)   - electronic entropy
     S(vib)  - vibrational entropy
     S(rot)  - rotational entropy
     S(trans)- translational entropy
The entropies will be listed as multiplied by the temperature to get
units of energy

Electronic entropy                ...      0.00000000 Eh      0.00 kcal/mol
Vibrational entropy               ...      0.00977804 Eh      6.14 kcal/mol
Rotational entropy                ...      0.01341710 Eh      8.42 kcal/mol
Translational entropy             ...      0.01904664 Eh     11.95 kcal/mol
-----------------------------------------------------------------------
Final entropy term                ...      0.04224178 Eh     26.51 kcal/mol

In case the symmetry of your molecule has not been determined correctly
or in case you have a reason to use a different symmetry number we print
out the resulting rotational entropy values for sn=1,12 :
 --------------------------------------------------------
|  sn= 1 | S(rot)=       0.01341710 Eh      8.42 kcal/mol|
|  sn= 2 | S(rot)=       0.01276265 Eh      8.01 kcal/mol|
|  sn= 3 | S(rot)=       0.01237982 Eh      7.77 kcal/mol|
|  sn= 4 | S(rot)=       0.01210819 Eh      7.60 kcal/mol|
|  sn= 5 | S(rot)=       0.01189750 Eh      7.47 kcal/mol|
|  sn= 6 | S(rot)=       0.01172536 Eh      7.36 kcal/mol|

                             ****ORCA TERMINATED NORMALLY****
TOTAL RUN TIME: 0 days 1 hours 11 minutes 39 seconds 213 msec
