                         Program Version 5.0.4 -  RELEASE  -
|  1> # ORCA 5.0.4 - /users/bwb16179/postgrad/2024_03/DFT_Crest_Conformers/Opt/prot/10_prot_aq_1.inp # write input file
|  2> # Basic Mode
|  3> #
|  4> ! Opt Freq wB97X Def2-SVP D4 SlowConv TightSCF Defgrid2 Def2/J RIJCOSX CPCM(Water)
|  5>
|  6>
|  7>
|  8> %maxcore 4500
|  9>
| 10> %geom
| 11> Maxiter 150
| 12> END
| 13>
| 14> * xyzfile 1 1 10_prot_aq_1.xyz
| 15>
| 16>                          ****END OF INPUT****
 Total Charge           Charge          ....    1
 Multiplicity           Mult            ....    1
 Number of Electrons    NEL             ....   62
Dispersion correction           -0.002470820
FINAL SINGLE POINT ENERGY      -345.506858560381
Dispersion correction            ... Starting D4
Dispersion correction           -0.002464786
FINAL SINGLE POINT ENERGY      -345.508257579587
Dispersion correction            ... Starting D4
Dispersion correction           -0.002463817
FINAL SINGLE POINT ENERGY      -345.508396974811
Dispersion correction            ... Starting D4
FINAL SINGLE POINT ENERGY      -345.508446377613
Dispersion correction           -0.002463457
FINAL SINGLE POINT ENERGY      -345.508452998069
Dispersion correction            ... Starting D4
Dispersion correction           -0.002463310
FINAL SINGLE POINT ENERGY      -345.508458493749
Dispersion correction            ... Starting D4
                    ***********************HURRAY********************

CARTESIAN COORDINATES (ANGSTROEM)
---------------------------------
  N     -1.163929   -0.348429    0.013162
  C     -0.000008   -0.954161   -0.063577
  N      1.163911   -0.348435    0.013224
  H     -0.000006   -2.040664   -0.198439
  C     -2.410402   -1.098262   -0.033997
  C      2.410389   -1.098256   -0.033973
  H     -2.196754   -2.173128   -0.086862
  H     -2.995935   -0.798028   -0.915383
  H     -2.996760   -0.892018    0.873345
  H      2.196746   -2.173124   -0.086829
  H      2.996771   -0.892007    0.873352
  H      2.995896   -0.798022   -0.915376
  C     -1.249150    1.101137    0.197338
  C      1.249091    1.101116    0.197531
  C      0.000019    1.772501   -0.347162
  H     -1.387645    1.312471    1.271001
  H     -2.146541    1.451003   -0.332449
  H      0.000004    2.834927   -0.068171
  H      0.000108    1.716644   -1.447208
  H      2.146586    1.451040   -0.332040
  H      1.387357    1.312367    1.271241

 Multiplicity           Mult            ....    1
 Number of Electrons    NEL             ....   62
 Basis Dimension        Dim             ....  177

ORBITAL ENERGIES
----------------

  NO   OCC          E(Eh)            E(eV)
   0   2.0000     -14.481999      -394.0752
   1   2.0000     -14.481997      -394.0752
   2   2.0000     -10.397499      -282.9303
   3   2.0000     -10.323972      -280.9296
   4   2.0000     -10.323957      -280.9292
   5   2.0000     -10.318066      -280.7688
   6   2.0000     -10.318053      -280.7685
   7   2.0000     -10.288789      -279.9722
   8   2.0000      -1.164101       -31.6768
   9   2.0000      -1.086782       -29.5729
  10   2.0000      -0.946107       -25.7449
  11   2.0000      -0.888328       -24.1726
  12   2.0000      -0.855511       -23.2796
  13   2.0000      -0.804805       -21.8998
  14   2.0000      -0.790862       -21.5204
  15   2.0000      -0.680297       -18.5118
  16   2.0000      -0.658507       -17.9189
  17   2.0000      -0.650949       -17.7132
  18   2.0000      -0.624001       -16.9799
  19   2.0000      -0.592428       -16.1208
  20   2.0000      -0.577534       -15.7155
  21   2.0000      -0.567302       -15.4371
  22   2.0000      -0.562898       -15.3172
  23   2.0000      -0.529359       -14.4046
  24   2.0000      -0.524545       -14.2736
  25   2.0000      -0.515162       -14.0183
  26   2.0000      -0.493253       -13.4221
  27   2.0000      -0.475612       -12.9421
  28   2.0000      -0.467873       -12.7315
  29   2.0000      -0.450307       -12.2535
  30   2.0000      -0.356876        -9.7111
  31   0.0000       0.063418         1.7257
  32   0.0000       0.133454         3.6315
  33   0.0000       0.161368         4.3911
  34   0.0000       0.164159         4.4670
  35   0.0000       0.182644         4.9700

MULLIKEN ATOMIC CHARGES
-----------------------
   0 N :   -0.317173
   1 C :    0.253251
   2 N :   -0.317168
   3 H :    0.123354
   4 C :    0.078615
   5 C :    0.078613
   6 H :    0.082230
   7 H :    0.081974
   8 H :    0.078019
   9 H :    0.082230
  10 H :    0.078020
  11 H :    0.081976
  12 C :    0.118927
  13 C :    0.118917
  14 C :   -0.088918
  15 H :    0.081186
  16 H :    0.077582
  17 H :    0.079105
  18 H :    0.070488
  19 H :    0.077583
  20 H :    0.081189
Sum of atomic charges:    1.0000000

LOEWDIN ATOMIC CHARGES
----------------------
   0 N :    0.014434
   1 C :    0.172509
   2 N :    0.014434
   3 H :    0.069102
   4 C :    0.049857
   5 C :    0.049857
   6 H :    0.048334
   7 H :    0.043451
   8 H :    0.043981
   9 H :    0.048335
  10 H :    0.043982
  11 H :    0.043451
  12 C :    0.055836
  13 C :    0.055835
  14 C :   -0.040876
  15 H :    0.044347
  16 H :    0.049185
  17 H :    0.056307
  18 H :    0.044106
  19 H :    0.049186
  20 H :    0.044348

  Mayer bond orders larger than 0.100000
B(  0-N ,  1-C ) :   1.4262 B(  0-N ,  4-C ) :   0.9233 B(  0-N , 12-C ) :   0.8992
B(  1-C ,  2-N ) :   1.4262 B(  1-C ,  3-H ) :   0.9588 B(  2-N ,  5-C ) :   0.9233
B(  2-N , 13-C ) :   0.8992 B(  4-C ,  6-H ) :   0.9708 B(  4-C ,  7-H ) :   0.9737
B(  4-C ,  8-H ) :   0.9721 B(  5-C ,  9-H ) :   0.9708 B(  5-C , 10-H ) :   0.9721
B(  5-C , 11-H ) :   0.9737 B( 12-C , 14-C ) :   1.0706 B( 12-C , 15-H ) :   0.9565
B( 12-C , 16-H ) :   0.9510 B( 13-C , 14-C ) :   1.0706 B( 13-C , 19-H ) :   0.9510
B( 13-C , 20-H ) :   0.9565 B( 14-C , 17-H ) :   0.9441 B( 14-C , 18-H ) :   0.9487

Dispersion correction           -0.002463213
FINAL SINGLE POINT ENERGY      -345.508460469669

DIPOLE MOMENT
-------------
                                X             Y             Z
Electronic contribution:      0.00004      -0.81347       0.05162
Nuclear contribution   :     -0.00004       0.23973      -0.00893
                        -----------------------------------------
Total Dipole Moment    :      0.00000      -0.57374       0.04269
                        -----------------------------------------
Magnitude (a.u.)       :      0.57533
Magnitude (Debye)      :      1.46237

Dispersion correction in the Hessian             ... Starting D4

VIBRATIONAL FREQUENCIES
-----------------------

Scaling factor for frequencies =  1.000000000  (already applied!)

   0:         0.00 cm**-1
   1:         0.00 cm**-1
   2:         0.00 cm**-1
   3:         0.00 cm**-1
   4:         0.00 cm**-1
   5:         0.00 cm**-1
   6:        98.07 cm**-1
   7:       152.25 cm**-1
   8:       183.42 cm**-1
   9:       214.30 cm**-1
  10:       270.56 cm**-1
  11:       300.38 cm**-1
  12:       316.20 cm**-1
  13:       425.16 cm**-1
  14:       456.09 cm**-1
  15:       477.11 cm**-1
  16:       531.70 cm**-1
  17:       624.60 cm**-1
  18:       809.50 cm**-1
  19:       881.28 cm**-1
  20:       916.37 cm**-1
  21:       941.81 cm**-1
  22:      1010.40 cm**-1
  23:      1045.29 cm**-1
  24:      1073.69 cm**-1
  25:      1123.50 cm**-1
  26:      1126.20 cm**-1
  27:      1137.99 cm**-1
  28:      1140.94 cm**-1
  29:      1160.99 cm**-1
  30:      1205.22 cm**-1
  31:      1237.99 cm**-1
  32:      1275.46 cm**-1
  33:      1281.93 cm**-1
  34:      1340.55 cm**-1
  35:      1354.44 cm**-1
  36:      1404.91 cm**-1
  37:      1418.83 cm**-1
  38:      1428.18 cm**-1
  39:      1445.99 cm**-1
  40:      1446.74 cm**-1
  41:      1447.61 cm**-1
  42:      1449.72 cm**-1
  43:      1457.26 cm**-1
  44:      1459.94 cm**-1
  45:      1464.83 cm**-1
  46:      1472.23 cm**-1
  47:      1488.46 cm**-1
  48:      1588.56 cm**-1
  49:      1799.25 cm**-1
  50:      3079.51 cm**-1
  51:      3080.57 cm**-1
  52:      3089.01 cm**-1
  53:      3091.73 cm**-1
  54:      3105.64 cm**-1
  55:      3167.69 cm**-1
  56:      3168.76 cm**-1
  57:      3183.03 cm**-1
  58:      3183.22 cm**-1
  59:      3184.23 cm**-1
  60:      3218.81 cm**-1
  61:      3218.81 cm**-1
  62:      3241.80 cm**-1

IR SPECTRUM
-----------

 Mode   freq       eps      Int      T**2         TX        TY        TZ
       cm**-1   L/(mol*cm) km/mol    a.u.
----------------------------------------------------------------------------
  6:     98.07   0.000002    0.01  0.000006  (-0.002387 -0.000001  0.000001)
  7:    152.25   0.000791    4.00  0.001622  ( 0.000003 -0.008163  0.039437)
  8:    183.42   0.000052    0.26  0.000089  ( 0.009442  0.000005 -0.000015)
  9:    214.30   0.000648    3.27  0.000943  ( 0.000003 -0.005065  0.030293)
 10:    270.56   0.000057    0.29  0.000066  (-0.000003  0.001190 -0.008014)
 11:    300.38   0.000013    0.07  0.000013  ( 0.003666  0.000003  0.000004)
 12:    316.20   0.000004    0.02  0.000004  (-0.000002 -0.001755  0.000688)
 13:    425.16   0.000014    0.07  0.000011  ( 0.003253  0.000001 -0.000012)
 14:    456.09   0.006625   33.48  0.004533  (-0.000010 -0.007026  0.066959)
 15:    477.11   0.001296    6.55  0.000848  ( 0.029120  0.000001  0.000002)
 16:    531.70   0.001893    9.57  0.001111  ( 0.000002  0.010861 -0.031512)
 17:    624.60   0.000040    0.20  0.000020  (-0.000001 -0.002448 -0.003726)
 18:    809.50   0.000211    1.07  0.000081  ( 0.000000  0.004856 -0.007598)
 19:    881.28   0.000362    1.83  0.000128  (-0.011324  0.000001 -0.000000)
 20:    916.37   0.000038    0.19  0.000013  ( 0.003575 -0.000000  0.000002)
 21:    941.81   0.000350    1.77  0.000116  ( 0.000001  0.002328  0.010508)
 22:   1010.40   0.000501    2.53  0.000155  (-0.000007  0.005618  0.011105)
 23:   1045.29   0.005684   28.72  0.001697  ( 0.000002  0.038326  0.015100)
 24:   1073.69   0.000158    0.80  0.000046  ( 0.006774 -0.000004  0.000001)
 25:   1123.50   0.001598    8.08  0.000444  (-0.000019 -0.005072  0.020448)
 26:   1126.20   0.002377   12.01  0.000659  ( 0.000008  0.025211 -0.004795)
 27:   1137.99   0.005682   28.71  0.001558  (-0.039472  0.000004 -0.000008)
 28:   1140.94   0.000019    0.10  0.000005  (-0.002301 -0.000001 -0.000001)
 29:   1160.99   0.000221    1.12  0.000060  (-0.000010  0.004465 -0.006291)
 30:   1205.22   0.016274   82.24  0.004214  ( 0.064913 -0.000002 -0.000001)
 31:   1237.99   0.012286   62.09  0.003097  ( 0.055649  0.000007 -0.000000)
 32:   1275.46   0.000641    3.24  0.000157  (-0.012524 -0.000025  0.000008)
 33:   1281.93   0.007193   36.35  0.001751  (-0.000008  0.038690 -0.015940)
 34:   1340.55   0.002425   12.25  0.000565  (-0.000013  0.022082  0.008768)
 35:   1354.44   0.010757   54.36  0.002478  (-0.049783 -0.000005 -0.000005)
 36:   1404.91   0.004788   24.20  0.001063  (-0.032611 -0.000004 -0.000002)
 37:   1418.83   0.003881   19.61  0.000854  (-0.029216  0.000004  0.000001)
 38:   1428.18   0.006908   34.91  0.001509  (-0.000007  0.037862  0.008709)
 39:   1445.99   0.014501   73.28  0.003130  (-0.055942  0.000005 -0.000040)
 40:   1446.74   0.010930   55.23  0.002358  ( 0.000043  0.009254 -0.047665)
 41:   1447.61   0.000121    0.61  0.000026  ( 0.005101  0.000004 -0.000004)
 42:   1449.72   0.001282    6.48  0.000276  (-0.000004  0.013173  0.010116)
 43:   1457.26   0.000170    0.86  0.000036  ( 0.000003  0.002117 -0.005655)
 44:   1459.94   0.000134    0.68  0.000029  ( 0.005358  0.000012  0.000002)
 45:   1464.83   0.006816   34.45  0.001452  (-0.000004  0.038001 -0.002828)
 46:   1472.23   0.000713    3.60  0.000151  ( 0.000001  0.011994 -0.002682)
 47:   1488.46   0.005277   26.67  0.001106  (-0.033261 -0.000002 -0.000002)
 48:   1588.56   0.009175   46.37  0.001802  (-0.000002 -0.041186 -0.010304)
 49:   1799.25   0.192673  973.69  0.033417  (-0.182804  0.000001 -0.000005)
 50:   3079.51   0.012332   62.32  0.001250  (-0.035350  0.000004  0.000001)
 51:   3080.57   0.001083    5.47  0.000110  ( 0.000012  0.010349  0.001619)
 52:   3089.01   0.003949   19.96  0.000399  (-0.019973 -0.000007 -0.000013)
 53:   3091.73   0.004392   22.20  0.000443  (-0.000015  0.012883  0.016655)
 54:   3105.64   0.002717   13.73  0.000273  ( 0.000001  0.006065 -0.015369)
 55:   3167.69   0.000885    4.47  0.000087  (-0.009335  0.000035 -0.000087)
 56:   3168.76   0.002261   11.43  0.000223  ( 0.000059  0.005909 -0.013704)
 57:   3183.03   0.003461   17.49  0.000339  (-0.000000  0.001191  0.018381)
 58:   3183.22   0.000000    0.00  0.000000  ( 0.000109  0.000002  0.000009)
 59:   3184.23   0.000432    2.18  0.000042  (-0.000002  0.005700  0.003134)
 60:   3218.81   0.000568    2.87  0.000055  (-0.004104 -0.006180 -0.000242)
 61:   3218.81   0.000528    2.67  0.000051  ( 0.005378 -0.004716 -0.000185)
 62:   3241.80   0.000537    2.71  0.000052  ( 0.000000  0.006954  0.001828)

--------------------------
THERMOCHEMISTRY AT 298.15K
--------------------------

Temperature         ... 298.15 K
Pressure            ... 1.00 atm
Total Mass          ... 113.18 AMU

Throughout the following assumptions are being made:
  (1) The electronic state is orbitally nondegenerate
  (2) There are no thermally accessible electronically excited states
  (3) Hindered rotations indicated by low frequency modes are not
      treated as such but are treated as vibrations and this may
      cause some error
  (4) All equations used are the standard statistical mechanics
      equations for an ideal gas
  (5) All vibrations are strictly harmonic

freq.      98.07  E(vib)   ...       0.46
freq.     152.25  E(vib)   ...       0.40
freq.     183.42  E(vib)   ...       0.37
freq.     214.30  E(vib)   ...       0.34
freq.     270.56  E(vib)   ...       0.29
freq.     300.38  E(vib)   ...       0.26
freq.     316.20  E(vib)   ...       0.25
freq.     425.16  E(vib)   ...       0.18
freq.     456.09  E(vib)   ...       0.16
freq.     477.11  E(vib)   ...       0.15
freq.     531.70  E(vib)   ...       0.13
freq.     624.60  E(vib)   ...       0.09
freq.     809.50  E(vib)   ...       0.05
freq.     881.28  E(vib)   ...       0.04
freq.     916.37  E(vib)   ...       0.03
freq.     941.81  E(vib)   ...       0.03
freq.    1010.40  E(vib)   ...       0.02
freq.    1045.29  E(vib)   ...       0.02
freq.    1073.69  E(vib)   ...       0.02
freq.    1123.50  E(vib)   ...       0.01
freq.    1126.20  E(vib)   ...       0.01
freq.    1137.99  E(vib)   ...       0.01
freq.    1140.94  E(vib)   ...       0.01
freq.    1160.99  E(vib)   ...       0.01
freq.    1205.22  E(vib)   ...       0.01
freq.    1237.99  E(vib)   ...       0.01
freq.    1275.46  E(vib)   ...       0.01
freq.    1281.93  E(vib)   ...       0.01
freq.    1340.55  E(vib)   ...       0.01
freq.    1354.44  E(vib)   ...       0.01
freq.    1404.91  E(vib)   ...       0.00
freq.    1418.83  E(vib)   ...       0.00
freq.    1428.18  E(vib)   ...       0.00
freq.    1445.99  E(vib)   ...       0.00
freq.    1446.74  E(vib)   ...       0.00
freq.    1447.61  E(vib)   ...       0.00
freq.    1449.72  E(vib)   ...       0.00
freq.    1457.26  E(vib)   ...       0.00
freq.    1459.94  E(vib)   ...       0.00
freq.    1464.83  E(vib)   ...       0.00
freq.    1472.23  E(vib)   ...       0.00
freq.    1488.46  E(vib)   ...       0.00
freq.    1588.56  E(vib)   ...       0.00
freq.    1799.25  E(vib)   ...       0.00
freq.    3079.51  E(vib)   ...       0.00
freq.    3080.57  E(vib)   ...       0.00
freq.    3089.01  E(vib)   ...       0.00
freq.    3091.73  E(vib)   ...       0.00
freq.    3105.64  E(vib)   ...       0.00
freq.    3167.69  E(vib)   ...       0.00
freq.    3168.76  E(vib)   ...       0.00
freq.    3183.03  E(vib)   ...       0.00
freq.    3183.22  E(vib)   ...       0.00
freq.    3184.23  E(vib)   ...       0.00
freq.    3218.81  E(vib)   ...       0.00
freq.    3218.81  E(vib)   ...       0.00
freq.    3241.80  E(vib)   ...       0.00

------------
INNER ENERGY
------------

The inner energy is: U= E(el) + E(ZPE) + E(vib) + E(rot) + E(trans)
    E(el)   - is the total energy from the electronic structure calculation
              = E(kin-el) + E(nuc-el) + E(el-el) + E(nuc-nuc)
    E(ZPE)  - the the zero temperature vibrational energy from the frequency calculation
    E(vib)  - the the finite temperature correction to E(ZPE) due to population
              of excited vibrational states
    E(rot)  - is the rotational thermal energy
    E(trans)- is the translational thermal energy

Summary of contributions to the inner energy U:
Electronic energy                ...   -345.50846047 Eh
Zero point energy                ...      0.19569170 Eh     122.80 kcal/mol
Thermal vibrational correction   ...      0.00550027 Eh       3.45 kcal/mol
Thermal rotational correction    ...      0.00141627 Eh       0.89 kcal/mol
Thermal translational correction ...      0.00141627 Eh       0.89 kcal/mol
-----------------------------------------------------------------------
Total thermal energy                   -345.30443595 Eh

Summary of corrections to the electronic energy:
(perhaps to be used in another calculation)
Total thermal correction                  0.00833282 Eh       5.23 kcal/mol
Non-thermal (ZPE) correction              0.19569170 Eh     122.80 kcal/mol
-----------------------------------------------------------------------
Total correction                          0.20402452 Eh     128.03 kcal/mol

--------
ENTHALPY
--------

The enthalpy is H = U + kB*T
                kB is Boltzmann's constant
Total free energy                 ...   -345.30443595 Eh
Thermal Enthalpy correction       ...      0.00094421 Eh       0.59 kcal/mol
-----------------------------------------------------------------------
Total Enthalpy                    ...   -345.30349174 Eh

Note: Only C1 symmetry has been detected, increase convergence thresholds
      if your molecule has a higher symmetry. Symmetry factor of 1.0 is
      used for the rotational entropy correction.

Note: Rotational entropy computed according to Herzberg
Infrared and Raman Spectra, Chapter V,1, Van Nostrand Reinhold, 1945
Point Group:  C1, Symmetry Number:   1
Rotational constants in cm-1:     0.107440     0.059059     0.040169

Vibrational entropy computed according to the QRRHO of S. Grimme
Chem.Eur.J. 2012 18 9955

-------
ENTROPY
-------

The entropy contributions are T*S = T*(S(el)+S(vib)+S(rot)+S(trans))
     S(el)   - electronic entropy
     S(vib)  - vibrational entropy
     S(rot)  - rotational entropy
     S(trans)- translational entropy
The entropies will be listed as multiplied by the temperature to get
units of energy

Electronic entropy                ...      0.00000000 Eh      0.00 kcal/mol
Vibrational entropy               ...      0.00915795 Eh      5.75 kcal/mol
Rotational entropy                ...      0.01341721 Eh      8.42 kcal/mol
Translational entropy             ...      0.01904664 Eh     11.95 kcal/mol
-----------------------------------------------------------------------
Final entropy term                ...      0.04162180 Eh     26.12 kcal/mol

In case the symmetry of your molecule has not been determined correctly
or in case you have a reason to use a different symmetry number we print
out the resulting rotational entropy values for sn=1,12 :
 --------------------------------------------------------
|  sn= 1 | S(rot)=       0.01341721 Eh      8.42 kcal/mol|
|  sn= 2 | S(rot)=       0.01276276 Eh      8.01 kcal/mol|
|  sn= 3 | S(rot)=       0.01237993 Eh      7.77 kcal/mol|
|  sn= 4 | S(rot)=       0.01210830 Eh      7.60 kcal/mol|
|  sn= 5 | S(rot)=       0.01189761 Eh      7.47 kcal/mol|
|  sn= 6 | S(rot)=       0.01172547 Eh      7.36 kcal/mol|

                             ****ORCA TERMINATED NORMALLY****
TOTAL RUN TIME: 0 days 0 hours 33 minutes 56 seconds 580 msec
