                         Program Version 5.0.4 -  RELEASE  -
|  1> # ORCA 5.0.4 - /users/bwb16179/postgrad/2024_03/DFT_Crest_Conformers/Opt/deprot/11_deprot_aq_2.inp # write input file
|  2> # Basic Mode
|  3> #
|  4> ! Opt Freq wB97X Def2-SVP D4 SlowConv TightSCF Defgrid2 Def2/J RIJCOSX CPCM(Water)
|  5>
|  6>
|  7>
|  8> %maxcore 4500
|  9>
| 10> %geom
| 11> Maxiter 150
| 12> END
| 13>
| 14> * xyzfile 0 1 11_deprot_aq_2.xyz
| 15>
| 16>                          ****END OF INPUT****
 Total Charge           Charge          ....    0
 Multiplicity           Mult            ....    1
 Number of Electrons    NEL             ....   56
Dispersion correction           -0.002159125
FINAL SINGLE POINT ENERGY      -306.888401239714
Dispersion correction            ... Starting D4
Dispersion correction           -0.002169733
FINAL SINGLE POINT ENERGY      -306.889302018081
Dispersion correction            ... Starting D4
Dispersion correction           -0.002151425
FINAL SINGLE POINT ENERGY      -306.890570120204
Dispersion correction            ... Starting D4
FINAL SINGLE POINT ENERGY      -306.890744798134
FINAL SINGLE POINT ENERGY      -306.890756580875
FINAL SINGLE POINT ENERGY      -306.890758939372
FINAL SINGLE POINT ENERGY      -306.890761656168
FINAL SINGLE POINT ENERGY      -306.890766469417
FINAL SINGLE POINT ENERGY      -306.890811901899
FINAL SINGLE POINT ENERGY      -306.890849577506
FINAL SINGLE POINT ENERGY      -306.892787181821
FINAL SINGLE POINT ENERGY      -306.892959550987
FINAL SINGLE POINT ENERGY      -306.893038537645
FINAL SINGLE POINT ENERGY      -306.893066403719
FINAL SINGLE POINT ENERGY      -306.893123774047
FINAL SINGLE POINT ENERGY      -306.893131927525
FINAL SINGLE POINT ENERGY      -306.893144943664
Dispersion correction           -0.002176341
FINAL SINGLE POINT ENERGY      -306.893151153624
Dispersion correction            ... Starting D4
Dispersion correction           -0.002176308
FINAL SINGLE POINT ENERGY      -306.893156166910
Dispersion correction            ... Starting D4
                    ***********************HURRAY********************

CARTESIAN COORDINATES (ANGSTROEM)
---------------------------------
  N     -1.166671   -0.144636    0.022199
  C     -0.001475   -0.819239   -0.016866
  N      1.157343   -0.133001   -0.030511
  C     -2.382022   -0.923140    0.200531
  C      2.379764   -0.892333   -0.240833
  H     -2.968402   -0.543714    1.054815
  H     -2.113190   -1.967970    0.394011
  H     -3.023404   -0.872728   -0.697615
  H      3.020978   -0.873316    0.658672
  H      2.961678   -0.471185   -1.078430
  H      2.120713   -1.930594   -0.477955
  C     -1.435511    1.253997   -0.309778
  H     -2.380141    1.300001   -0.873364
  H     -0.649409    1.662958   -0.954581
  H     -1.544654    1.897704    0.578966
  C      1.414360    1.254738    0.352546
  H      2.357480    1.287538    0.919704
  H      0.624063    1.633889    1.010203
  H      1.520578    1.930488   -0.512400

 Multiplicity           Mult            ....    1
 Number of Electrons    NEL             ....   56
 Basis Dimension        Dim             ....  158

ORBITAL ENERGIES
----------------

  NO   OCC          E(Eh)            E(eV)
   0   2.0000     -14.423710      -392.4891
   1   2.0000     -14.423694      -392.4887
   2   2.0000     -10.292674      -280.0779
   3   2.0000     -10.292651      -280.0773
   4   2.0000     -10.287359      -279.9333
   5   2.0000     -10.287317      -279.9321
   6   2.0000     -10.280236      -279.7394
   7   2.0000      -1.084006       -29.4973
   8   2.0000      -1.029001       -28.0006
   9   2.0000      -0.840801       -22.8794
  10   2.0000      -0.834307       -22.7026
  11   2.0000      -0.820549       -22.3283
  12   2.0000      -0.750778       -20.4297
  13   2.0000      -0.655104       -17.8263
  14   2.0000      -0.607272       -16.5247
  15   2.0000      -0.583786       -15.8856
  16   2.0000      -0.581324       -15.8186
  17   2.0000      -0.559890       -15.2354
  18   2.0000      -0.537307       -14.6209
  19   2.0000      -0.521444       -14.1892
  20   2.0000      -0.503356       -13.6970
  21   2.0000      -0.491272       -13.3682
  22   2.0000      -0.481158       -13.0930
  23   2.0000      -0.476064       -12.9544
  24   2.0000      -0.454486       -12.3672
  25   2.0000      -0.409971       -11.1559
  26   2.0000      -0.327441        -8.9101
  27   2.0000      -0.283268        -7.7081
  28   0.0000       0.125070         3.4033
  29   0.0000       0.150226         4.0879
  30   0.0000       0.171164         4.6576
  31   0.0000       0.197040         5.3617
  32   0.0000       0.198322         5.3966

MULLIKEN ATOMIC CHARGES
-----------------------
   0 N :   -0.329118
   1 C :   -0.194777
   2 N :   -0.329012
   3 C :    0.102629
   4 C :    0.102849
   5 H :    0.039215
   6 H :    0.029457
   7 H :    0.037201
   8 H :    0.037297
   9 H :    0.039120
  10 H :    0.029455
  11 C :    0.064782
  12 H :    0.044119
  13 H :    0.052157
  14 H :    0.056766
  15 C :    0.064803
  16 H :    0.044112
  17 H :    0.052165
  18 H :    0.056777
Sum of atomic charges:    0.0000000

LOEWDIN ATOMIC CHARGES
----------------------
   0 N :   -0.059361
   1 C :   -0.263692
   2 N :   -0.059287
   3 C :    0.023090
   4 C :    0.023197
   5 H :    0.022339
   6 H :    0.021017
   7 H :    0.019867
   8 H :    0.019905
   9 H :    0.022373
  10 H :    0.021003
  11 C :    0.015929
  12 H :    0.030187
  13 H :    0.032263
  14 H :    0.026374
  15 C :    0.015929
  16 H :    0.030187
  17 H :    0.032281
  18 H :    0.026399

  Mayer bond orders larger than 0.100000
B(  0-N ,  1-C ) :   1.2943 B(  0-N ,  3-C ) :   0.9753 B(  0-N , 11-C ) :   0.9331
B(  1-C ,  2-N ) :   1.2945 B(  2-N ,  4-C ) :   0.9751 B(  2-N , 15-C ) :   0.9330
B(  3-C ,  5-H ) :   0.9769 B(  3-C ,  6-H ) :   0.9700 B(  3-C ,  7-H ) :   0.9733
B(  4-C ,  8-H ) :   0.9733 B(  4-C ,  9-H ) :   0.9769 B(  4-C , 10-H ) :   0.9700
B( 11-C , 12-H ) :   0.9702 B( 11-C , 13-H ) :   0.9734 B( 11-C , 14-H ) :   0.9740
B( 15-C , 16-H ) :   0.9702 B( 15-C , 17-H ) :   0.9734 B( 15-C , 18-H ) :   0.9740

Dispersion correction           -0.002176308
FINAL SINGLE POINT ENERGY      -306.893157466649

DIPOLE MOMENT
-------------
                                X             Y             Z
Electronic contribution:      0.00630      -1.57986      -0.02334
Nuclear contribution   :     -0.01252       3.12431       0.05068
                        -----------------------------------------
Total Dipole Moment    :     -0.00622       1.54445       0.02734
                        -----------------------------------------
Magnitude (a.u.)       :      1.54470
Magnitude (Debye)      :      3.92632

Dispersion correction in the Hessian             ... Starting D4

VIBRATIONAL FREQUENCIES
-----------------------

Scaling factor for frequencies =  1.000000000  (already applied!)

   0:         0.00 cm**-1
   1:         0.00 cm**-1
   2:         0.00 cm**-1
   3:         0.00 cm**-1
   4:         0.00 cm**-1
   5:         0.00 cm**-1
   6:        61.89 cm**-1
   7:       151.54 cm**-1
   8:       173.80 cm**-1
   9:       179.72 cm**-1
  10:       208.15 cm**-1
  11:       239.11 cm**-1
  12:       285.72 cm**-1
  13:       322.20 cm**-1
  14:       354.34 cm**-1
  15:       430.78 cm**-1
  16:       438.86 cm**-1
  17:       504.48 cm**-1
  18:       621.80 cm**-1
  19:       892.50 cm**-1
  20:       917.50 cm**-1
  21:      1066.33 cm**-1
  22:      1070.36 cm**-1
  23:      1094.89 cm**-1
  24:      1109.75 cm**-1
  25:      1112.41 cm**-1
  26:      1156.57 cm**-1
  27:      1161.39 cm**-1
  28:      1165.41 cm**-1
  29:      1267.83 cm**-1
  30:      1334.40 cm**-1
  31:      1409.37 cm**-1
  32:      1417.39 cm**-1
  33:      1417.70 cm**-1
  34:      1419.19 cm**-1
  35:      1445.63 cm**-1
  36:      1449.84 cm**-1
  37:      1456.87 cm**-1
  38:      1458.85 cm**-1
  39:      1464.58 cm**-1
  40:      1465.25 cm**-1
  41:      1475.66 cm**-1
  42:      1480.16 cm**-1
  43:      1508.92 cm**-1
  44:      1590.60 cm**-1
  45:      3037.63 cm**-1
  46:      3039.77 cm**-1
  47:      3058.50 cm**-1
  48:      3063.28 cm**-1
  49:      3119.15 cm**-1
  50:      3119.42 cm**-1
  51:      3144.64 cm**-1
  52:      3147.37 cm**-1
  53:      3209.10 cm**-1
  54:      3210.39 cm**-1
  55:      3210.68 cm**-1
  56:      3212.70 cm**-1

IR SPECTRUM
-----------

 Mode   freq       eps      Int      T**2         TX        TY        TZ
       cm**-1   L/(mol*cm) km/mol    a.u.
----------------------------------------------------------------------------
  6:     61.89   0.000028    0.14  0.000141  (-0.000494 -0.011850  0.000421)
  7:    151.54   0.001270    6.42  0.002616  (-0.005003  0.000390 -0.050902)
  8:    173.80   0.000385    1.95  0.000691  ( 0.001399  0.000273 -0.026258)
  9:    179.72   0.000293    1.48  0.000510  ( 0.006253 -0.009920  0.019287)
 10:    208.15   0.000851    4.30  0.001276  (-0.015726 -0.004712 -0.031730)
 11:    239.11   0.002550   12.89  0.003329  (-0.017650 -0.000457  0.054926)
 12:    285.72   0.000834    4.21  0.000911  ( 0.001599 -0.030126  0.000829)
 13:    322.20   0.000029    0.15  0.000029  (-0.000465  0.005291  0.000544)
 14:    354.34   0.003825   19.33  0.003369  ( 0.048585  0.001328 -0.031728)
 15:    430.78   0.000021    0.11  0.000015  (-0.001120  0.003732 -0.000210)
 16:    438.86   0.003741   18.91  0.002660  (-0.049687  0.000036 -0.013839)
 17:    504.48   0.000788    3.98  0.000488  (-0.021169 -0.000169  0.006278)
 18:    621.80   0.000558    2.82  0.000280  ( 0.000026 -0.016735 -0.000437)
 19:    892.50   0.002814   14.22  0.000984  (-0.000201  0.031361  0.000474)
 20:    917.50   0.008253   41.71  0.002807  (-0.052857 -0.000196 -0.003619)
 21:   1066.33   0.001276    6.45  0.000373  ( 0.000292 -0.019318 -0.000282)
 22:   1070.36   0.001238    6.25  0.000361  ( 0.018791  0.000156 -0.002779)
 23:   1094.89   0.000819    4.14  0.000233  ( 0.000390  0.015274  0.000194)
 24:   1109.75   0.000422    2.13  0.000119  ( 0.001935  0.000854 -0.010683)
 25:   1112.41   0.000642    3.24  0.000180  ( 0.000566 -0.013364 -0.001079)
 26:   1156.57   0.017508   88.48  0.004724  (-0.068053 -0.000586 -0.009616)
 27:   1161.39   0.000290    1.47  0.000078  (-0.003617 -0.007920  0.001458)
 28:   1165.41   0.013834   69.91  0.003704  (-0.059666  0.000247  0.012010)
 29:   1267.83   0.000401    2.03  0.000099  ( 0.009246  0.000107 -0.003644)
 30:   1334.40   0.006972   35.23  0.001631  (-0.000962  0.040361  0.000767)
 31:   1409.37   0.033768  170.65  0.007477  (-0.086184  0.000184 -0.007016)
 32:   1417.39   0.000729    3.68  0.000160  (-0.012333  0.002290  0.001760)
 33:   1417.70   0.010239   51.74  0.002254  (-0.047059 -0.001854  0.005979)
 34:   1419.19   0.000044    0.22  0.000010  ( 0.000377  0.002439  0.001868)
 35:   1445.63   0.000685    3.46  0.000148  ( 0.000289  0.012072 -0.001455)
 36:   1449.84   0.000419    2.12  0.000090  ( 0.008894  0.000221  0.003315)
 37:   1456.87   0.003554   17.96  0.000761  ( 0.008102 -0.009205 -0.024717)
 38:   1458.85   0.004779   24.15  0.001022  ( 0.010384  0.008992 -0.028872)
 39:   1464.58   0.004463   22.55  0.000951  (-0.027532 -0.011960 -0.007059)
 40:   1465.25   0.005503   27.81  0.001172  ( 0.032503 -0.009396  0.005229)
 41:   1475.66   0.004109   20.76  0.000869  ( 0.006578  0.002668 -0.028609)
 42:   1480.16   0.003643   18.41  0.000768  (-0.001525  0.027587  0.002165)
 43:   1508.92   0.001795    9.07  0.000371  ( 0.000407 -0.019246 -0.000765)
 44:   1590.60   0.113214  572.14  0.022212  ( 0.148833  0.000662  0.007742)
 45:   3037.63   0.036406  183.98  0.003740  ( 0.061041  0.001376  0.003500)
 46:   3039.77   0.002652   13.40  0.000272  (-0.004475  0.015881 -0.000036)
 47:   3058.50   0.007867   39.76  0.000803  (-0.028276  0.000006  0.001777)
 48:   3063.28   0.013949   70.49  0.001421  ( 0.000039  0.037689  0.000735)
 49:   3119.15   0.008558   43.25  0.000856  (-0.000823 -0.005685 -0.028692)
 50:   3119.42   0.012923   65.31  0.001293  (-0.001063  0.005749 -0.035477)
 51:   3144.64   0.000650    3.29  0.000065  ( 0.000551 -0.007991  0.000599)
 52:   3147.37   0.008984   45.40  0.000891  (-0.016654  0.000177 -0.024766)
 53:   3209.10   0.002007   10.14  0.000195  (-0.006685  0.011763 -0.003481)
 54:   3210.39   0.001940    9.81  0.000189  ( 0.003229  0.011870  0.006106)
 55:   3210.68   0.004695   23.73  0.000456  ( 0.016676  0.003396 -0.012910)
 56:   3212.70   0.000445    2.25  0.000043  (-0.002522  0.005537  0.002492)

--------------------------
THERMOCHEMISTRY AT 298.15K
--------------------------

Temperature         ... 298.15 K
Pressure            ... 1.00 atm
Total Mass          ... 100.16 AMU

Throughout the following assumptions are being made:
  (1) The electronic state is orbitally nondegenerate
  (2) There are no thermally accessible electronically excited states
  (3) Hindered rotations indicated by low frequency modes are not
      treated as such but are treated as vibrations and this may
      cause some error
  (4) All equations used are the standard statistical mechanics
      equations for an ideal gas
  (5) All vibrations are strictly harmonic

freq.      61.89  E(vib)   ...       0.51
freq.     151.54  E(vib)   ...       0.40
freq.     173.80  E(vib)   ...       0.38
freq.     179.72  E(vib)   ...       0.37
freq.     208.15  E(vib)   ...       0.34
freq.     239.11  E(vib)   ...       0.31
freq.     285.72  E(vib)   ...       0.28
freq.     322.20  E(vib)   ...       0.25
freq.     354.34  E(vib)   ...       0.22
freq.     430.78  E(vib)   ...       0.18
freq.     438.86  E(vib)   ...       0.17
freq.     504.48  E(vib)   ...       0.14
freq.     621.80  E(vib)   ...       0.09
freq.     892.50  E(vib)   ...       0.03
freq.     917.50  E(vib)   ...       0.03
freq.    1066.33  E(vib)   ...       0.02
freq.    1070.36  E(vib)   ...       0.02
freq.    1094.89  E(vib)   ...       0.02
freq.    1109.75  E(vib)   ...       0.02
freq.    1112.41  E(vib)   ...       0.01
freq.    1156.57  E(vib)   ...       0.01
freq.    1161.39  E(vib)   ...       0.01
freq.    1165.41  E(vib)   ...       0.01
freq.    1267.83  E(vib)   ...       0.01
freq.    1334.40  E(vib)   ...       0.01
freq.    1409.37  E(vib)   ...       0.00
freq.    1417.39  E(vib)   ...       0.00
freq.    1417.70  E(vib)   ...       0.00
freq.    1419.19  E(vib)   ...       0.00
freq.    1445.63  E(vib)   ...       0.00
freq.    1449.84  E(vib)   ...       0.00
freq.    1456.87  E(vib)   ...       0.00
freq.    1458.85  E(vib)   ...       0.00
freq.    1464.58  E(vib)   ...       0.00
freq.    1465.25  E(vib)   ...       0.00
freq.    1475.66  E(vib)   ...       0.00
freq.    1480.16  E(vib)   ...       0.00
freq.    1508.92  E(vib)   ...       0.00
freq.    1590.60  E(vib)   ...       0.00
freq.    3037.63  E(vib)   ...       0.00
freq.    3039.77  E(vib)   ...       0.00
freq.    3058.50  E(vib)   ...       0.00
freq.    3063.28  E(vib)   ...       0.00
freq.    3119.15  E(vib)   ...       0.00
freq.    3119.42  E(vib)   ...       0.00
freq.    3144.64  E(vib)   ...       0.00
freq.    3147.37  E(vib)   ...       0.00
freq.    3209.10  E(vib)   ...       0.00
freq.    3210.39  E(vib)   ...       0.00
freq.    3210.68  E(vib)   ...       0.00
freq.    3212.70  E(vib)   ...       0.00

------------
INNER ENERGY
------------

The inner energy is: U= E(el) + E(ZPE) + E(vib) + E(rot) + E(trans)
    E(el)   - is the total energy from the electronic structure calculation
              = E(kin-el) + E(nuc-el) + E(el-el) + E(nuc-nuc)
    E(ZPE)  - the the zero temperature vibrational energy from the frequency calculation
    E(vib)  - the the finite temperature correction to E(ZPE) due to population
              of excited vibrational states
    E(rot)  - is the rotational thermal energy
    E(trans)- is the translational thermal energy

Summary of contributions to the inner energy U:
Electronic energy                ...   -306.89315747 Eh
Zero point energy                ...      0.17166982 Eh     107.72 kcal/mol
Thermal vibrational correction   ...      0.00620749 Eh       3.90 kcal/mol
Thermal rotational correction    ...      0.00141627 Eh       0.89 kcal/mol
Thermal translational correction ...      0.00141627 Eh       0.89 kcal/mol
-----------------------------------------------------------------------
Total thermal energy                   -306.71244762 Eh

Summary of corrections to the electronic energy:
(perhaps to be used in another calculation)
Total thermal correction                  0.00904003 Eh       5.67 kcal/mol
Non-thermal (ZPE) correction              0.17166982 Eh     107.72 kcal/mol
-----------------------------------------------------------------------
Total correction                          0.18070985 Eh     113.40 kcal/mol

--------
ENTHALPY
--------

The enthalpy is H = U + kB*T
                kB is Boltzmann's constant
Total free energy                 ...   -306.71244762 Eh
Thermal Enthalpy correction       ...      0.00094421 Eh       0.59 kcal/mol
-----------------------------------------------------------------------
Total Enthalpy                    ...   -306.71150341 Eh

Note: Only C1 symmetry has been detected, increase convergence thresholds
      if your molecule has a higher symmetry. Symmetry factor of 1.0 is
      used for the rotational entropy correction.

Note: Rotational entropy computed according to Herzberg
Infrared and Raman Spectra, Chapter V,1, Van Nostrand Reinhold, 1945
Point Group:  C1, Symmetry Number:   1
Rotational constants in cm-1:     0.162554     0.056872     0.044719

Vibrational entropy computed according to the QRRHO of S. Grimme
Chem.Eur.J. 2012 18 9955

-------
ENTROPY
-------

The entropy contributions are T*S = T*(S(el)+S(vib)+S(rot)+S(trans))
     S(el)   - electronic entropy
     S(vib)  - vibrational entropy
     S(rot)  - rotational entropy
     S(trans)- translational entropy
The entropies will be listed as multiplied by the temperature to get
units of energy

Electronic entropy                ...      0.00000000 Eh      0.00 kcal/mol
Vibrational entropy               ...      0.01063432 Eh      6.67 kcal/mol
Rotational entropy                ...      0.01318889 Eh      8.28 kcal/mol
Translational entropy             ...      0.01887358 Eh     11.84 kcal/mol
-----------------------------------------------------------------------
Final entropy term                ...      0.04269679 Eh     26.79 kcal/mol

In case the symmetry of your molecule has not been determined correctly
or in case you have a reason to use a different symmetry number we print
out the resulting rotational entropy values for sn=1,12 :
 --------------------------------------------------------
|  sn= 1 | S(rot)=       0.01318889 Eh      8.28 kcal/mol|
|  sn= 2 | S(rot)=       0.01253444 Eh      7.87 kcal/mol|
|  sn= 3 | S(rot)=       0.01215160 Eh      7.63 kcal/mol|
|  sn= 4 | S(rot)=       0.01187998 Eh      7.45 kcal/mol|
|  sn= 5 | S(rot)=       0.01166929 Eh      7.32 kcal/mol|
|  sn= 6 | S(rot)=       0.01149715 Eh      7.21 kcal/mol|
|  sn= 7 | S(rot)=       0.01135160 Eh      7.12 kcal/mol|
|  sn= 8 | S(rot)=       0.01122552 Eh      7.04 kcal/mol|
|  sn= 9 | S(rot)=       0.01111432 Eh      6.97 kcal/mol|
|  sn=10 | S(rot)=       0.01101484 Eh      6.91 kcal/mol|
|  sn=11 | S(rot)=       0.01092485 Eh      6.86 kcal/mol|
|  sn=12 | S(rot)=       0.01084269 Eh      6.80 kcal/mol|

                             ****ORCA TERMINATED NORMALLY****
TOTAL RUN TIME: 0 days 1 hours 9 minutes 5 seconds 739 msec
