                         Program Version 5.0.4 -  RELEASE  -
|  1> # ORCA 5.0.4 - /users/bwb16179/postgrad/2024_03/DFT_Crest_Conformers/Opt/deprot/11_deprot_aq_1.inp # write input file
|  2> # Basic Mode
|  3> #
|  4> ! Opt Freq wB97X Def2-SVP D4 SlowConv TightSCF Defgrid2 Def2/J RIJCOSX CPCM(Water)
|  5>
|  6>
|  7>
|  8> %maxcore 4500
|  9>
| 10> %geom
| 11> Maxiter 150
| 12> END
| 13>
| 14> * xyzfile 0 1 11_deprot_aq_1.xyz
| 15>
| 16>                          ****END OF INPUT****
 Total Charge           Charge          ....    0
 Multiplicity           Mult            ....    1
 Number of Electrons    NEL             ....   56
Dispersion correction           -0.002166525
FINAL SINGLE POINT ENERGY      -306.890045577574
Dispersion correction            ... Starting D4
Dispersion correction           -0.002172963
FINAL SINGLE POINT ENERGY      -306.891252189107
Dispersion correction            ... Starting D4
Dispersion correction           -0.002159889
FINAL SINGLE POINT ENERGY      -306.891905739525
Dispersion correction            ... Starting D4
FINAL SINGLE POINT ENERGY      -306.892535513020
FINAL SINGLE POINT ENERGY      -306.892663073230
FINAL SINGLE POINT ENERGY      -306.892912984539
FINAL SINGLE POINT ENERGY      -306.892992718069
FINAL SINGLE POINT ENERGY      -306.893046816726
FINAL SINGLE POINT ENERGY      -306.893123601209
Dispersion correction           -0.002176480
FINAL SINGLE POINT ENERGY      -306.893147035718
Dispersion correction            ... Starting D4
Dispersion correction           -0.002176646
FINAL SINGLE POINT ENERGY      -306.893161497777
Dispersion correction            ... Starting D4
                    ***********************HURRAY********************

CARTESIAN COORDINATES (ANGSTROEM)
---------------------------------
  N     -1.161375   -0.132935    0.035952
  C     -0.000001   -0.814263   -0.000030
  N      1.161358   -0.132912   -0.035953
  C     -2.379156   -0.899987    0.244561
  C      2.379153   -0.899918   -0.244647
  H     -2.114604   -1.942556    0.455250
  H     -3.031332   -0.862760   -0.646373
  H     -2.951688   -0.499431    1.098545
  H      2.114624   -1.942478   -0.455410
  H      3.031348   -0.862737    0.646275
  H      2.951654   -0.499281   -1.098614
  C     -1.426148    1.259896   -0.322770
  H     -2.373741    1.298063   -0.881983
  H     -0.641908    1.652033   -0.980113
  H     -1.528003    1.921539    0.553518
  C      1.426116    1.259900    0.322857
  H      0.641851    1.652002    0.980191
  H      1.528003    1.921585   -0.553396
  H      2.373689    1.298035    0.882107

 Multiplicity           Mult            ....    1
 Number of Electrons    NEL             ....   56
 Basis Dimension        Dim             ....  158

ORBITAL ENERGIES
----------------

  NO   OCC          E(Eh)            E(eV)
   0   2.0000     -14.423679      -392.4882
   1   2.0000     -14.423671      -392.4880
   2   2.0000     -10.292675      -280.0779
   3   2.0000     -10.292653      -280.0773
   4   2.0000     -10.287363      -279.9334
   5   2.0000     -10.287334      -279.9326
   6   2.0000     -10.280302      -279.7412
   7   2.0000      -1.084061       -29.4988
   8   2.0000      -1.028969       -27.9997
   9   2.0000      -0.840797       -22.8792
  10   2.0000      -0.834380       -22.7046
  11   2.0000      -0.820544       -22.3281
  12   2.0000      -0.750739       -20.4286
  13   2.0000      -0.655075       -17.8255
  14   2.0000      -0.607270       -16.5247
  15   2.0000      -0.583811       -15.8863
  16   2.0000      -0.581332       -15.8189
  17   2.0000      -0.559992       -15.2381
  18   2.0000      -0.537279       -14.6201
  19   2.0000      -0.521396       -14.1879
  20   2.0000      -0.503366       -13.6973
  21   2.0000      -0.491287       -13.3686
  22   2.0000      -0.481154       -13.0929
  23   2.0000      -0.476050       -12.9540
  24   2.0000      -0.454545       -12.3688
  25   2.0000      -0.409892       -11.1537
  26   2.0000      -0.327716        -8.9176
  27   2.0000      -0.283165        -7.7053
  28   0.0000       0.124983         3.4009
  29   0.0000       0.150191         4.0869
  30   0.0000       0.171147         4.6571
  31   0.0000       0.197036         5.3616
  32   0.0000       0.198260         5.3949

MULLIKEN ATOMIC CHARGES
-----------------------
   0 N :   -0.329136
   1 C :   -0.194651
   2 N :   -0.329132
   3 C :    0.102740
   4 C :    0.102740
   5 H :    0.029469
   6 H :    0.037219
   7 H :    0.039202
   8 H :    0.029469
   9 H :    0.037220
  10 H :    0.039201
  11 C :    0.064879
  12 H :    0.044091
  13 H :    0.052200
  14 H :    0.056658
  15 C :    0.064881
  16 H :    0.052200
  17 H :    0.056658
  18 H :    0.044091
Sum of atomic charges:   -0.0000000

LOEWDIN ATOMIC CHARGES
----------------------
   0 N :   -0.059350
   1 C :   -0.263739
   2 N :   -0.059347
   3 C :    0.023162
   4 C :    0.023163
   5 H :    0.021023
   6 H :    0.019899
   7 H :    0.022364
   8 H :    0.021023
   9 H :    0.019899
  10 H :    0.022364
  11 C :    0.015995
  12 H :    0.030139
  13 H :    0.032285
  14 H :    0.026350
  15 C :    0.015996
  16 H :    0.032285
  17 H :    0.026350
  18 H :    0.030139

  Mayer bond orders larger than 0.100000
B(  0-N ,  1-C ) :   1.2941 B(  0-N ,  3-C ) :   0.9752 B(  0-N , 11-C ) :   0.9332
B(  1-C ,  2-N ) :   1.2941 B(  2-N ,  4-C ) :   0.9752 B(  2-N , 15-C ) :   0.9332
B(  3-C ,  5-H ) :   0.9700 B(  3-C ,  6-H ) :   0.9732 B(  3-C ,  7-H ) :   0.9769
B(  4-C ,  8-H ) :   0.9700 B(  4-C ,  9-H ) :   0.9732 B(  4-C , 10-H ) :   0.9769
B( 11-C , 12-H ) :   0.9702 B( 11-C , 13-H ) :   0.9733 B( 11-C , 14-H ) :   0.9740
B( 15-C , 16-H ) :   0.9733 B( 15-C , 17-H ) :   0.9740 B( 15-C , 18-H ) :   0.9702

Dispersion correction           -0.002176654
FINAL SINGLE POINT ENERGY      -306.893162986704

DIPOLE MOMENT
-------------
                                X             Y             Z
Electronic contribution:      0.00001      -1.58472       0.00000
Nuclear contribution   :     -0.00001       3.12985       0.00004
                        -----------------------------------------
Total Dipole Moment    :     -0.00000       1.54513       0.00004
                        -----------------------------------------
Magnitude (a.u.)       :      1.54513
Magnitude (Debye)      :      3.92740

Dispersion correction in the Hessian             ... Starting D4

VIBRATIONAL FREQUENCIES
-----------------------

Scaling factor for frequencies =  1.000000000  (already applied!)

   0:         0.00 cm**-1
   1:         0.00 cm**-1
   2:         0.00 cm**-1
   3:         0.00 cm**-1
   4:         0.00 cm**-1
   5:         0.00 cm**-1
   6:        62.13 cm**-1
   7:       150.61 cm**-1
   8:       167.75 cm**-1
   9:       185.13 cm**-1
  10:       206.19 cm**-1
  11:       235.83 cm**-1
  12:       285.52 cm**-1
  13:       322.29 cm**-1
  14:       353.57 cm**-1
  15:       430.83 cm**-1
  16:       438.48 cm**-1
  17:       504.52 cm**-1
  18:       621.68 cm**-1
  19:       892.76 cm**-1
  20:       917.28 cm**-1
  21:      1066.08 cm**-1
  22:      1070.28 cm**-1
  23:      1094.86 cm**-1
  24:      1109.90 cm**-1
  25:      1112.74 cm**-1
  26:      1155.99 cm**-1
  27:      1161.57 cm**-1
  28:      1165.65 cm**-1
  29:      1267.56 cm**-1
  30:      1334.34 cm**-1
  31:      1409.16 cm**-1
  32:      1417.56 cm**-1
  33:      1417.63 cm**-1
  34:      1418.85 cm**-1
  35:      1445.56 cm**-1
  36:      1450.03 cm**-1
  37:      1457.47 cm**-1
  38:      1458.03 cm**-1
  39:      1464.41 cm**-1
  40:      1464.78 cm**-1
  41:      1475.35 cm**-1
  42:      1480.17 cm**-1
  43:      1509.14 cm**-1
  44:      1590.23 cm**-1
  45:      3037.93 cm**-1
  46:      3040.04 cm**-1
  47:      3058.56 cm**-1
  48:      3063.40 cm**-1
  49:      3119.65 cm**-1
  50:      3119.71 cm**-1
  51:      3144.79 cm**-1
  52:      3147.52 cm**-1
  53:      3209.93 cm**-1
  54:      3210.02 cm**-1
  55:      3210.57 cm**-1
  56:      3212.80 cm**-1

IR SPECTRUM
-----------

 Mode   freq       eps      Int      T**2         TX        TY        TZ
       cm**-1   L/(mol*cm) km/mol    a.u.
----------------------------------------------------------------------------
  6:     62.13   0.000028    0.14  0.000141  (-0.000004  0.011854 -0.000001)
  7:    150.61   0.001504    7.60  0.003116  ( 0.005147 -0.000001  0.055581)
  8:    167.75   0.000005    0.02  0.000009  (-0.000004  0.002989 -0.000062)
  9:    185.13   0.000064    0.32  0.000108  ( 0.000005 -0.010386  0.000016)
 10:    206.19   0.001090    5.51  0.001650  (-0.017005 -0.000007 -0.036889)
 11:    235.83   0.002636   13.32  0.003488  ( 0.017042  0.000001 -0.056546)
 12:    285.52   0.000851    4.30  0.000930  ( 0.000008 -0.030490 -0.000000)
 13:    322.29   0.000026    0.13  0.000025  (-0.000003 -0.005002  0.000003)
 14:    353.57   0.003915   19.79  0.003456  ( 0.048941  0.000003 -0.032563)
 15:    430.83   0.000020    0.10  0.000014  ( 0.000009  0.003797  0.000001)
 16:    438.48   0.003747   18.93  0.002666  (-0.049760  0.000001 -0.013795)
 17:    504.52   0.000763    3.85  0.000472  ( 0.020679  0.000000 -0.006634)
 18:    621.68   0.000554    2.80  0.000278  (-0.000000 -0.016670 -0.000002)
 19:    892.76   0.002827   14.29  0.000988  (-0.000002 -0.031435 -0.000001)
 20:    917.28   0.008266   41.77  0.002812  ( 0.052937  0.000000  0.003141)
 21:   1066.08   0.001232    6.23  0.000361  (-0.000005  0.018989  0.000001)
 22:   1070.28   0.001212    6.12  0.000353  (-0.018519 -0.000004  0.003215)
 23:   1094.86   0.000857    4.33  0.000244  (-0.000002 -0.015629  0.000000)
 24:   1109.90   0.000452    2.28  0.000127  (-0.003085 -0.000002  0.010839)
 25:   1112.74   0.000625    3.16  0.000175  (-0.000003  0.013243  0.000003)
 26:   1155.99   0.018413   93.05  0.004971  (-0.069933 -0.000002 -0.008945)
 27:   1161.57   0.000226    1.14  0.000061  (-0.000018 -0.007797  0.000006)
 28:   1165.65   0.013066   66.03  0.003498  (-0.057754  0.000002  0.012745)
 29:   1267.56   0.000402    2.03  0.000099  ( 0.009135 -0.000000 -0.003945)
 30:   1334.34   0.006991   35.33  0.001635  (-0.000002  0.040434  0.000002)
 31:   1409.16   0.033976  171.70  0.007524  ( 0.086502 -0.000001  0.006437)
 32:   1417.56   0.010732   54.24  0.002363  ( 0.048082 -0.000032 -0.007122)
 33:   1417.63   0.000023    0.12  0.000005  ( 0.000737  0.002114 -0.000107)
 34:   1418.85   0.000040    0.20  0.000009  ( 0.000031  0.002971 -0.000001)
 35:   1445.56   0.000675    3.41  0.000146  ( 0.000003  0.012074  0.000001)
 36:   1450.03   0.000410    2.07  0.000088  (-0.008928  0.000004 -0.002913)
 37:   1457.47   0.000887    4.48  0.000190  ( 0.000040 -0.013779 -0.000116)
 38:   1458.03   0.007581   38.31  0.001623  ( 0.012302  0.000046 -0.038357)
 39:   1464.41   0.009089   45.93  0.001937  (-0.043255 -0.000013 -0.008117)
 40:   1464.78   0.001058    5.34  0.000225  ( 0.000034 -0.015011  0.000002)
 41:   1475.35   0.004073   20.58  0.000862  (-0.007150  0.000010  0.028468)
 42:   1480.17   0.003620   18.29  0.000763  (-0.000001 -0.027625  0.000009)
 43:   1509.14   0.001750    8.84  0.000362  (-0.000005  0.019021  0.000002)
 44:   1590.23   0.113042  571.27  0.022183  ( 0.148797  0.000002  0.006526)
 45:   3037.93   0.036568  184.80  0.003756  ( 0.061228  0.000005  0.002719)
 46:   3040.04   0.002451   12.39  0.000252  (-0.000014  0.015863  0.000001)
 47:   3058.56   0.007871   39.78  0.000803  (-0.028274 -0.000004  0.001914)
 48:   3063.40   0.013985   70.67  0.001425  (-0.000002  0.037744  0.000001)
 49:   3119.65   0.000645    3.26  0.000065  (-0.000012  0.008029 -0.000249)
 50:   3119.71   0.020835  105.29  0.002084  ( 0.001977  0.000042  0.045610)
 51:   3144.79   0.000661    3.34  0.000066  (-0.000002  0.008101 -0.000003)
 52:   3147.52   0.009001   45.49  0.000892  ( 0.016842  0.000001  0.024673)
 53:   3209.93   0.001027    5.19  0.000100  (-0.008140  0.000255 -0.005793)
 54:   3210.02   0.002955   14.93  0.000287  (-0.000110 -0.016948 -0.000097)
 55:   3210.57   0.004773   24.12  0.000464  ( 0.016601  0.000026 -0.013723)
 56:   3212.80   0.000326    1.65  0.000032  (-0.000040  0.005623  0.000037)

--------------------------
THERMOCHEMISTRY AT 298.15K
--------------------------

Temperature         ... 298.15 K
Pressure            ... 1.00 atm
Total Mass          ... 100.16 AMU

Throughout the following assumptions are being made:
  (1) The electronic state is orbitally nondegenerate
  (2) There are no thermally accessible electronically excited states
  (3) Hindered rotations indicated by low frequency modes are not
      treated as such but are treated as vibrations and this may
      cause some error
  (4) All equations used are the standard statistical mechanics
      equations for an ideal gas
  (5) All vibrations are strictly harmonic

freq.      62.13  E(vib)   ...       0.51
freq.     150.61  E(vib)   ...       0.40
freq.     167.75  E(vib)   ...       0.38
freq.     185.13  E(vib)   ...       0.37
freq.     206.19  E(vib)   ...       0.35
freq.     235.83  E(vib)   ...       0.32
freq.     285.52  E(vib)   ...       0.28
freq.     322.29  E(vib)   ...       0.25
freq.     353.57  E(vib)   ...       0.22
freq.     430.83  E(vib)   ...       0.18
freq.     438.48  E(vib)   ...       0.17
freq.     504.52  E(vib)   ...       0.14
freq.     621.68  E(vib)   ...       0.09
freq.     892.76  E(vib)   ...       0.03
freq.     917.28  E(vib)   ...       0.03
freq.    1066.08  E(vib)   ...       0.02
freq.    1070.28  E(vib)   ...       0.02
freq.    1094.86  E(vib)   ...       0.02
freq.    1109.90  E(vib)   ...       0.02
freq.    1112.74  E(vib)   ...       0.01
freq.    1155.99  E(vib)   ...       0.01
freq.    1161.57  E(vib)   ...       0.01
freq.    1165.65  E(vib)   ...       0.01
freq.    1267.56  E(vib)   ...       0.01
freq.    1334.34  E(vib)   ...       0.01
freq.    1409.16  E(vib)   ...       0.00
freq.    1417.56  E(vib)   ...       0.00
freq.    1417.63  E(vib)   ...       0.00
freq.    1418.85  E(vib)   ...       0.00
freq.    1445.56  E(vib)   ...       0.00
freq.    1450.03  E(vib)   ...       0.00
freq.    1457.47  E(vib)   ...       0.00
freq.    1458.03  E(vib)   ...       0.00
freq.    1464.41  E(vib)   ...       0.00
freq.    1464.78  E(vib)   ...       0.00
freq.    1475.35  E(vib)   ...       0.00
freq.    1480.17  E(vib)   ...       0.00
freq.    1509.14  E(vib)   ...       0.00
freq.    1590.23  E(vib)   ...       0.00
freq.    3037.93  E(vib)   ...       0.00
freq.    3040.04  E(vib)   ...       0.00
freq.    3058.56  E(vib)   ...       0.00
freq.    3063.40  E(vib)   ...       0.00
freq.    3119.65  E(vib)   ...       0.00
freq.    3119.71  E(vib)   ...       0.00
freq.    3144.79  E(vib)   ...       0.00
freq.    3147.52  E(vib)   ...       0.00
freq.    3209.93  E(vib)   ...       0.00
freq.    3210.02  E(vib)   ...       0.00
freq.    3210.57  E(vib)   ...       0.00
freq.    3212.80  E(vib)   ...       0.00

------------
INNER ENERGY
------------

The inner energy is: U= E(el) + E(ZPE) + E(vib) + E(rot) + E(trans)
    E(el)   - is the total energy from the electronic structure calculation
              = E(kin-el) + E(nuc-el) + E(el-el) + E(nuc-nuc)
    E(ZPE)  - the the zero temperature vibrational energy from the frequency calculation
    E(vib)  - the the finite temperature correction to E(ZPE) due to population
              of excited vibrational states
    E(rot)  - is the rotational thermal energy
    E(trans)- is the translational thermal energy

Summary of contributions to the inner energy U:
Electronic energy                ...   -306.89316299 Eh
Zero point energy                ...      0.17165282 Eh     107.71 kcal/mol
Thermal vibrational correction   ...      0.00621898 Eh       3.90 kcal/mol
Thermal rotational correction    ...      0.00141627 Eh       0.89 kcal/mol
Thermal translational correction ...      0.00141627 Eh       0.89 kcal/mol
-----------------------------------------------------------------------
Total thermal energy                   -306.71245864 Eh

Summary of corrections to the electronic energy:
(perhaps to be used in another calculation)
Total thermal correction                  0.00905152 Eh       5.68 kcal/mol
Non-thermal (ZPE) correction              0.17165282 Eh     107.71 kcal/mol
-----------------------------------------------------------------------
Total correction                          0.18070434 Eh     113.39 kcal/mol

--------
ENTHALPY
--------

The enthalpy is H = U + kB*T
                kB is Boltzmann's constant
Total free energy                 ...   -306.71245864 Eh
Thermal Enthalpy correction       ...      0.00094421 Eh       0.59 kcal/mol
-----------------------------------------------------------------------
Total Enthalpy                    ...   -306.71151443 Eh

Note: Rotational entropy computed according to Herzberg
Infrared and Raman Spectra, Chapter V,1, Van Nostrand Reinhold, 1945
Point Group:  C2, Symmetry Number:   2
Rotational constants in cm-1:     0.162598     0.056873     0.044754

Vibrational entropy computed according to the QRRHO of S. Grimme
Chem.Eur.J. 2012 18 9955

-------
ENTROPY
-------

The entropy contributions are T*S = T*(S(el)+S(vib)+S(rot)+S(trans))
     S(el)   - electronic entropy
     S(vib)  - vibrational entropy
     S(rot)  - rotational entropy
     S(trans)- translational entropy
The entropies will be listed as multiplied by the temperature to get
units of energy

Electronic entropy                ...      0.00000000 Eh      0.00 kcal/mol
Vibrational entropy               ...      0.01066451 Eh      6.69 kcal/mol
Rotational entropy                ...      0.01253393 Eh      7.87 kcal/mol
Translational entropy             ...      0.01887358 Eh     11.84 kcal/mol
-----------------------------------------------------------------------
Final entropy term                ...      0.04207202 Eh     26.40 kcal/mol

In case the symmetry of your molecule has not been determined correctly
or in case you have a reason to use a different symmetry number we print
out the resulting rotational entropy values for sn=1,12 :
 --------------------------------------------------------
|  sn= 1 | S(rot)=       0.01318838 Eh      8.28 kcal/mol|
|  sn= 2 | S(rot)=       0.01253393 Eh      7.87 kcal/mol|
|  sn= 3 | S(rot)=       0.01215110 Eh      7.62 kcal/mol|
|  sn= 4 | S(rot)=       0.01187947 Eh      7.45 kcal/mol|
|  sn= 5 | S(rot)=       0.01166878 Eh      7.32 kcal/mol|
|  sn= 6 | S(rot)=       0.01149664 Eh      7.21 kcal/mol|
|  sn= 7 | S(rot)=       0.01135109 Eh      7.12 kcal/mol|
|  sn= 8 | S(rot)=       0.01122502 Eh      7.04 kcal/mol|
|  sn= 9 | S(rot)=       0.01111381 Eh      6.97 kcal/mol|
|  sn=10 | S(rot)=       0.01101433 Eh      6.91 kcal/mol|
|  sn=11 | S(rot)=       0.01092434 Eh      6.86 kcal/mol|
|  sn=12 | S(rot)=       0.01084218 Eh      6.80 kcal/mol|
 --------------------------------------------------------

-------------------
GIBBS FREE ENERGY

                             ****ORCA TERMINATED NORMALLY****
TOTAL RUN TIME: 0 days 0 hours 36 minutes 41 seconds 96 msec
