                         Program Version 5.0.4 -  RELEASE  -
|  1> # ORCA 5.0.4 - /users/bwb16179/postgrad/2024_03/DFT_Crest_Conformers/Opt/prot/11_prot_aq_2.inp # write input file
|  2> # Basic Mode
|  3> #
|  4> ! Opt Freq wB97X Def2-SVP D4 SlowConv TightSCF Defgrid2 Def2/J RIJCOSX CPCM(Water)
|  5>
|  6>
|  7>
|  8> %maxcore 4500
|  9>
| 10> %geom
| 11> Maxiter 150
| 12> END
| 13>
| 14> * xyzfile 1 1 11_prot_aq_2.xyz
| 15>
| 16>                          ****END OF INPUT****
 Total Charge           Charge          ....    1
 Multiplicity           Mult            ....    1
 Number of Electrons    NEL             ....   56
Dispersion correction           -0.002057582
FINAL SINGLE POINT ENERGY      -307.408826810009
Dispersion correction            ... Starting D4
Dispersion correction           -0.002060523
FINAL SINGLE POINT ENERGY      -307.410201583379
Dispersion correction            ... Starting D4
Dispersion correction           -0.002055256
FINAL SINGLE POINT ENERGY      -307.410366400509
Dispersion correction            ... Starting D4
Dispersion correction           -0.002057301
FINAL SINGLE POINT ENERGY      -307.410430525005
Dispersion correction            ... Starting D4
Dispersion correction           -0.002057810
FINAL SINGLE POINT ENERGY      -307.410436496367
Dispersion correction            ... Starting D4
                    ***********************HURRAY********************

CARTESIAN COORDINATES (ANGSTROEM)
---------------------------------
  N     -1.193217   -0.078024   -0.001242
  C      0.007124   -0.620522   -0.000661
  N      1.211737   -0.088138    0.001046
  H      0.000530   -1.714570   -0.002248
  C     -2.353209   -0.969122   -0.003379
  C      2.365616   -0.989278    0.001344
  H     -2.957725   -0.784159    0.896740
  H     -2.033616   -2.017614   -0.016469
  H     -2.967809   -0.765188   -0.892429
  H      2.975415   -0.807118    0.897953
  H      2.977609   -0.804681   -0.893263
  H      2.032143   -2.033715   -0.000424
  C     -1.567499    1.332943   -0.001574
  H     -0.704987    1.997166    0.021335
  H     -2.193847    1.531445    0.880481
  H     -2.157386    1.542792   -0.906006
  C      1.535945    1.337060    0.004121
  H      2.627640    1.431914   -0.002650
  H      1.154209    1.827828    0.910191
  H      1.142570    1.834478   -0.893188

 Multiplicity           Mult            ....    1
 Number of Electrons    NEL             ....   56
 Basis Dimension        Dim             ....  163

ORBITAL ENERGIES
----------------

  NO   OCC          E(Eh)            E(eV)
   0   2.0000     -14.487442      -394.2233
   1   2.0000     -14.485886      -394.1810
   2   2.0000     -10.400011      -282.9987
   3   2.0000     -10.319605      -280.8107
   4   2.0000     -10.317982      -280.7666
   5   2.0000     -10.317629      -280.7570
   6   2.0000     -10.317159      -280.7442
   7   2.0000      -1.152737       -31.3676
   8   2.0000      -1.091393       -29.6983
   9   2.0000      -0.899806       -24.4850
  10   2.0000      -0.872888       -23.7525
  11   2.0000      -0.857032       -23.3210
  12   2.0000      -0.809702       -22.0331
  13   2.0000      -0.711038       -19.3483
  14   2.0000      -0.655478       -17.8365
  15   2.0000      -0.651964       -17.7408
  16   2.0000      -0.626731       -17.0542
  17   2.0000      -0.590759       -16.0754
  18   2.0000      -0.579590       -15.7715
  19   2.0000      -0.556001       -15.1296
  20   2.0000      -0.531280       -14.4569
  21   2.0000      -0.526647       -14.3308
  22   2.0000      -0.520286       -14.1577
  23   2.0000      -0.515975       -14.0404
  24   2.0000      -0.511204       -13.9106
  25   2.0000      -0.483087       -13.1455
  26   2.0000      -0.472298       -12.8519
  27   2.0000      -0.358335        -9.7508
  28   0.0000       0.064255         1.7485
  29   0.0000       0.133114         3.6222
  30   0.0000       0.161844         4.4040
  31   0.0000       0.166539         4.5318
  32   0.0000       0.189468         5.1557

MULLIKEN ATOMIC CHARGES
-----------------------
   0 N :   -0.297651
   1 C :    0.230681
   2 N :   -0.304561
   3 H :    0.113198
   4 C :    0.070389
   5 C :    0.065831
   6 H :    0.079276
   7 H :    0.085255
   8 H :    0.078656
   9 H :    0.083663
  10 H :    0.083761
  11 H :    0.083096
  12 C :    0.072493
  13 H :    0.071938
  14 H :    0.080290
  15 H :    0.081277
  16 C :    0.046310
  17 H :    0.080317
  18 H :    0.098107
  19 H :    0.097674
Sum of atomic charges:    1.0000000

LOEWDIN ATOMIC CHARGES
----------------------
   0 N :    0.016900
   1 C :    0.169916
   2 N :    0.011207
   3 H :    0.066034
   4 C :    0.052222
   5 C :    0.051458
   6 H :    0.043249
   7 H :    0.047126
   8 H :    0.043285
   9 H :    0.043452
  10 H :    0.043477
  11 H :    0.046610
  12 C :    0.044739
  13 H :    0.041709
  14 H :    0.046749
  15 H :    0.046712
  16 C :    0.038762
  17 H :    0.051289
  18 H :    0.047549
  19 H :    0.047556

  Mayer bond orders larger than 0.100000
B(  0-N ,  1-C ) :   1.4467 B(  0-N ,  4-C ) :   0.9218 B(  0-N , 12-C ) :   0.9166
B(  1-C ,  2-N ) :   1.4413 B(  1-C ,  3-H ) :   0.9560 B(  2-N ,  5-C ) :   0.9209
B(  2-N , 16-C ) :   0.9114 B(  4-C ,  6-H ) :   0.9730 B(  4-C ,  7-H ) :   0.9692
B(  4-C ,  8-H ) :   0.9727 B(  5-C ,  9-H ) :   0.9739 B(  5-C , 10-H ) :   0.9738
B(  5-C , 11-H ) :   0.9696 B( 12-C , 13-H ) :   0.9672 B( 12-C , 14-H ) :   0.9699
B( 12-C , 15-H ) :   0.9703 B( 16-C , 17-H ) :   0.9659 B( 16-C , 18-H ) :   0.9694
B( 16-C , 19-H ) :   0.9695

Dispersion correction           -0.002057777
FINAL SINGLE POINT ENERGY      -307.410437500986

DIPOLE MOMENT
-------------
                                X             Y             Z
Electronic contribution:      0.13831      -1.35712      -0.00079
Nuclear contribution   :     -0.09972       1.15928       0.00056
                        -----------------------------------------
Total Dipole Moment    :      0.03859      -0.19784      -0.00023
                        -----------------------------------------
Magnitude (a.u.)       :      0.20157
Magnitude (Debye)      :      0.51235

Dispersion correction in the Hessian             ... Starting D4

VIBRATIONAL FREQUENCIES
-----------------------

Scaling factor for frequencies =  1.000000000  (already applied!)

   0:         0.00 cm**-1
   1:         0.00 cm**-1
   2:         0.00 cm**-1
   3:         0.00 cm**-1
   4:         0.00 cm**-1
   5:         0.00 cm**-1
   6:       -96.10 cm**-1 ***imaginary mode***
   7:        70.31 cm**-1
   8:       147.21 cm**-1
   9:       184.38 cm**-1
  10:       223.75 cm**-1
  11:       264.86 cm**-1
  12:       285.03 cm**-1
  13:       328.22 cm**-1
  14:       338.43 cm**-1
  15:       411.75 cm**-1
  16:       466.55 cm**-1
  17:       487.49 cm**-1
  18:       628.29 cm**-1
  19:       886.34 cm**-1
  20:       924.02 cm**-1
  21:      1021.35 cm**-1
  22:      1081.84 cm**-1
  23:      1095.22 cm**-1
  24:      1108.74 cm**-1
  25:      1122.95 cm**-1
  26:      1131.40 cm**-1
  27:      1162.70 cm**-1
  28:      1172.36 cm**-1
  29:      1186.37 cm**-1
  30:      1239.97 cm**-1
  31:      1340.28 cm**-1
  32:      1430.37 cm**-1
  33:      1437.46 cm**-1
  34:      1441.64 cm**-1
  35:      1443.87 cm**-1
  36:      1451.20 cm**-1
  37:      1453.33 cm**-1
  38:      1454.62 cm**-1
  39:      1455.92 cm**-1
  40:      1466.60 cm**-1
  41:      1468.42 cm**-1
  42:      1472.36 cm**-1
  43:      1490.02 cm**-1
  44:      1521.74 cm**-1
  45:      1567.62 cm**-1
  46:      1802.09 cm**-1
  47:      3081.59 cm**-1
  48:      3083.60 cm**-1
  49:      3089.87 cm**-1
  50:      3094.34 cm**-1
  51:      3180.12 cm**-1
  52:      3184.27 cm**-1
  53:      3188.42 cm**-1
  54:      3200.40 cm**-1
  55:      3219.83 cm**-1
  56:      3223.43 cm**-1
  57:      3223.73 cm**-1
  58:      3245.80 cm**-1
  59:      3308.21 cm**-1

IR SPECTRUM
-----------

 Mode   freq       eps      Int      T**2         TX        TY        TZ
       cm**-1   L/(mol*cm) km/mol    a.u.
----------------------------------------------------------------------------
  7:     70.31   0.000032    0.16  0.000140  (-0.001418  0.000323 -0.011762)
  8:    147.21   0.000523    2.64  0.001109  (-0.000481 -0.000016  0.033295)
  9:    184.38   0.000007    0.03  0.000011  (-0.000227  0.000329 -0.003301)
 10:    223.75   0.000233    1.18  0.000325  (-0.000312  0.000197 -0.018026)
 11:    264.86   0.000041    0.21  0.000049  (-0.005190  0.004406 -0.001525)
 12:    285.03   0.000512    2.59  0.000561  ( 0.000714 -0.000259 -0.023669)
 13:    328.22   0.000062    0.31  0.000059  ( 0.000273 -0.000024 -0.007655)
 14:    338.43   0.000005    0.02  0.000004  (-0.001732  0.001090  0.000028)
 15:    411.75   0.000023    0.12  0.000018  (-0.003584 -0.002175 -0.000125)
 16:    466.55   0.008984   45.40  0.006009  ( 0.000037 -0.000011 -0.077519)
 17:    487.49   0.000457    2.31  0.000293  ( 0.017060  0.001019 -0.000705)
 18:    628.29   0.000261    1.32  0.000129  ( 0.003356 -0.010868  0.000215)
 19:    886.34   0.001243    6.28  0.000438  (-0.006334  0.019941 -0.000025)
 20:    924.02   0.004536   22.92  0.001532  ( 0.039058 -0.002541  0.000096)
 21:   1021.35   0.000390    1.97  0.000119  (-0.000001 -0.000227  0.010912)
 22:   1081.84   0.005803   29.33  0.001674  ( 0.030315  0.027476  0.000094)
 23:   1095.22   0.003406   17.21  0.000971  (-0.006420 -0.030484 -0.000114)
 24:   1108.74   0.000038    0.19  0.000011  ( 0.000184 -0.000206  0.003278)
 25:   1122.95   0.000172    0.87  0.000048  (-0.001923 -0.000047  0.006642)
 26:   1131.40   0.000201    1.01  0.000055  (-0.001070  0.007363 -0.000053)
 27:   1162.70   0.000000    0.00  0.000000  (-0.000059  0.000033  0.000299)
 28:   1172.36   0.000038    0.19  0.000010  ( 0.002113  0.000513  0.002328)
 29:   1186.37   0.028569  144.38  0.007515  (-0.086556  0.004780 -0.000140)
 30:   1239.97   0.000847    4.28  0.000213  (-0.013974 -0.004236  0.000030)
 31:   1340.28   0.009194   46.46  0.002141  ( 0.015952 -0.043429  0.000098)
 32:   1430.37   0.008173   41.30  0.001783  (-0.042173  0.002134 -0.000195)
 33:   1437.46   0.000111    0.56  0.000024  (-0.004819  0.000215 -0.000855)
 34:   1441.64   0.009991   50.49  0.002163  ( 0.046367 -0.003563 -0.000056)
 35:   1443.87   0.000295    1.49  0.000064  ( 0.006326  0.001205  0.004715)
 36:   1451.20   0.004190   21.18  0.000901  ( 0.000448 -0.000329  0.030013)
 37:   1453.33   0.001676    8.47  0.000360  (-0.012749 -0.005114 -0.013084)
 38:   1454.62   0.005323   26.90  0.001142  ( 0.024199  0.000468 -0.023584)
 39:   1455.92   0.011233   56.77  0.002408  (-0.006315 -0.000216 -0.048660)
 40:   1466.60   0.002527   12.77  0.000538  (-0.007954  0.021292 -0.004591)
 41:   1468.42   0.000217    1.09  0.000046  (-0.002881  0.006003  0.001302)
 42:   1472.36   0.005257   26.57  0.001114  (-0.009927 -0.031852 -0.001083)
 43:   1490.02   0.002379   12.02  0.000498  ( 0.022267  0.001536 -0.000248)
 44:   1521.74   0.019662   99.36  0.004032  ( 0.062869  0.008921  0.000005)
 45:   1567.62   0.008137   41.12  0.001620  (-0.000239  0.040247  0.000118)
 46:   1802.09   0.239224  1208.94  0.041426  ( 0.203532 -0.000484  0.000371)
 47:   3081.59   0.007248   36.63  0.000734  ( 0.026304  0.006489 -0.000110)
 48:   3083.60   0.004276   21.61  0.000433  ( 0.015919 -0.013392  0.000025)
 49:   3089.87   0.002785   14.07  0.000281  ( 0.016277  0.004030  0.000251)
 50:   3094.34   0.004292   21.69  0.000433  ( 0.012346 -0.016744  0.000168)
 51:   3180.12   0.002024   10.23  0.000199  ( 0.000220 -0.000069 -0.014091)
 52:   3184.27   0.000641    3.24  0.000063  (-0.000092 -0.000005 -0.007924)
 53:   3188.42   0.001518    7.67  0.000149  (-0.000028 -0.000022  0.012189)
 54:   3200.40   0.000407    2.06  0.000040  ( 0.000084 -0.000014 -0.006296)
 55:   3219.83   0.000184    0.93  0.000018  (-0.001202  0.004050 -0.000073)
 56:   3223.43   0.000660    3.34  0.000064  ( 0.002844  0.007472  0.000061)
 57:   3223.73   0.000821    4.15  0.000079  (-0.008598  0.002358  0.000028)
 58:   3245.80   0.000288    1.46  0.000028  ( 0.000182  0.005258 -0.000001)
 59:   3308.21   0.000366    1.85  0.000035  (-0.005027  0.003045  0.000101)

--------------------------
THERMOCHEMISTRY AT 298.15K
--------------------------

Temperature         ... 298.15 K
Pressure            ... 1.00 atm
Total Mass          ... 101.17 AMU

Throughout the following assumptions are being made:
  (1) The electronic state is orbitally nondegenerate
  (2) There are no thermally accessible electronically excited states
  (3) Hindered rotations indicated by low frequency modes are not
      treated as such but are treated as vibrations and this may
      cause some error
  (4) All equations used are the standard statistical mechanics
      equations for an ideal gas
  (5) All vibrations are strictly harmonic

freq.      70.31  E(vib)   ...       0.50
freq.     147.21  E(vib)   ...       0.41
freq.     184.38  E(vib)   ...       0.37
freq.     223.75  E(vib)   ...       0.33
freq.     264.86  E(vib)   ...       0.29
freq.     285.03  E(vib)   ...       0.28
freq.     328.22  E(vib)   ...       0.24
freq.     338.43  E(vib)   ...       0.23
freq.     411.75  E(vib)   ...       0.19
freq.     466.55  E(vib)   ...       0.16
freq.     487.49  E(vib)   ...       0.15
freq.     628.29  E(vib)   ...       0.09
freq.     886.34  E(vib)   ...       0.04
freq.     924.02  E(vib)   ...       0.03
freq.    1021.35  E(vib)   ...       0.02
freq.    1081.84  E(vib)   ...       0.02
freq.    1095.22  E(vib)   ...       0.02
freq.    1108.74  E(vib)   ...       0.02
freq.    1122.95  E(vib)   ...       0.01
freq.    1131.40  E(vib)   ...       0.01
freq.    1162.70  E(vib)   ...       0.01
freq.    1172.36  E(vib)   ...       0.01
freq.    1186.37  E(vib)   ...       0.01
freq.    1239.97  E(vib)   ...       0.01
freq.    1340.28  E(vib)   ...       0.01
freq.    1430.37  E(vib)   ...       0.00
freq.    1437.46  E(vib)   ...       0.00
freq.    1441.64  E(vib)   ...       0.00
freq.    1443.87  E(vib)   ...       0.00
freq.    1451.20  E(vib)   ...       0.00
freq.    1453.33  E(vib)   ...       0.00
freq.    1454.62  E(vib)   ...       0.00
freq.    1455.92  E(vib)   ...       0.00
freq.    1466.60  E(vib)   ...       0.00
freq.    1468.42  E(vib)   ...       0.00
freq.    1472.36  E(vib)   ...       0.00
freq.    1490.02  E(vib)   ...       0.00
freq.    1521.74  E(vib)   ...       0.00
freq.    1567.62  E(vib)   ...       0.00
freq.    1802.09  E(vib)   ...       0.00
freq.    3081.59  E(vib)   ...       0.00
freq.    3083.60  E(vib)   ...       0.00
freq.    3089.87  E(vib)   ...       0.00
freq.    3094.34  E(vib)   ...       0.00
freq.    3180.12  E(vib)   ...       0.00
freq.    3184.27  E(vib)   ...       0.00
freq.    3188.42  E(vib)   ...       0.00
freq.    3200.40  E(vib)   ...       0.00
freq.    3219.83  E(vib)   ...       0.00
freq.    3223.43  E(vib)   ...       0.00
freq.    3223.73  E(vib)   ...       0.00
freq.    3245.80  E(vib)   ...       0.00
freq.    3308.21  E(vib)   ...       0.00

------------
INNER ENERGY
------------

The inner energy is: U= E(el) + E(ZPE) + E(vib) + E(rot) + E(trans)
    E(el)   - is the total energy from the electronic structure calculation
              = E(kin-el) + E(nuc-el) + E(el-el) + E(nuc-nuc)
    E(ZPE)  - the the zero temperature vibrational energy from the frequency calculation
    E(vib)  - the the finite temperature correction to E(ZPE) due to population
              of excited vibrational states
    E(rot)  - is the rotational thermal energy
    E(trans)- is the translational thermal energy

Summary of contributions to the inner energy U:
Electronic energy                ...   -307.41043750 Eh
Zero point energy                ...      0.18678855 Eh     117.21 kcal/mol
Thermal vibrational correction   ...      0.00556527 Eh       3.49 kcal/mol
Thermal rotational correction    ...      0.00141627 Eh       0.89 kcal/mol
Thermal translational correction ...      0.00141627 Eh       0.89 kcal/mol
-----------------------------------------------------------------------
Total thermal energy                   -307.21525114 Eh

Summary of corrections to the electronic energy:
(perhaps to be used in another calculation)
Total thermal correction                  0.00839782 Eh       5.27 kcal/mol
Non-thermal (ZPE) correction              0.18678855 Eh     117.21 kcal/mol
-----------------------------------------------------------------------
Total correction                          0.19518637 Eh     122.48 kcal/mol

--------
ENTHALPY
--------

The enthalpy is H = U + kB*T
                kB is Boltzmann's constant
Total free energy                 ...   -307.21525114 Eh
Thermal Enthalpy correction       ...      0.00094421 Eh       0.59 kcal/mol
-----------------------------------------------------------------------
Total Enthalpy                    ...   -307.21430693 Eh

Note: Only C1 symmetry has been detected, increase convergence thresholds
      if your molecule has a higher symmetry. Symmetry factor of 1.0 is
      used for the rotational entropy correction.

Note: Rotational entropy computed according to Herzberg
Infrared and Raman Spectra, Chapter V,1, Van Nostrand Reinhold, 1945
Point Group:  C1, Symmetry Number:   1
Rotational constants in cm-1:     0.155375     0.055796     0.042391

Vibrational entropy computed according to the QRRHO of S. Grimme
Chem.Eur.J. 2012 18 9955

-------
ENTROPY
-------

The entropy contributions are T*S = T*(S(el)+S(vib)+S(rot)+S(trans))
     S(el)   - electronic entropy
     S(vib)  - vibrational entropy
     S(rot)  - rotational entropy
     S(trans)- translational entropy
The entropies will be listed as multiplied by the temperature to get
units of energy

Electronic entropy                ...      0.00000000 Eh      0.00 kcal/mol
Vibrational entropy               ...      0.00937316 Eh      5.88 kcal/mol
Rotational entropy                ...      0.01324447 Eh      8.31 kcal/mol
Translational entropy             ...      0.01888776 Eh     11.85 kcal/mol
-----------------------------------------------------------------------
Final entropy term                ...      0.04150539 Eh     26.04 kcal/mol

In case the symmetry of your molecule has not been determined correctly
or in case you have a reason to use a different symmetry number we print
out the resulting rotational entropy values for sn=1,12 :
 --------------------------------------------------------
|  sn= 1 | S(rot)=       0.01324447 Eh      8.31 kcal/mol|
|  sn= 2 | S(rot)=       0.01259002 Eh      7.90 kcal/mol|
|  sn= 3 | S(rot)=       0.01220718 Eh      7.66 kcal/mol|
|  sn= 4 | S(rot)=       0.01193556 Eh      7.49 kcal/mol|
|  sn= 5 | S(rot)=       0.01172487 Eh      7.36 kcal/mol|
|  sn= 6 | S(rot)=       0.01155273 Eh      7.25 kcal/mol|
|  sn= 7 | S(rot)=       0.01140718 Eh      7.16 kcal/mol|
|  sn= 8 | S(rot)=       0.01128110 Eh      7.08 kcal/mol|
|  sn= 9 | S(rot)=       0.01116989 Eh      7.01 kcal/mol|
|  sn=10 | S(rot)=       0.01107041 Eh      6.95 kcal/mol|

                             ****ORCA TERMINATED NORMALLY****
TOTAL RUN TIME: 0 days 0 hours 23 minutes 54 seconds 160 msec
