                         Program Version 5.0.4 -  RELEASE  -
|  1> # ORCA 5.0.4 - /users/bwb16179/postgrad/2024_03/DFT_Crest_Conformers/Opt/prot/11_prot_aq_1.inp # write input file
|  2> # Basic Mode
|  3> #
|  4> ! Opt Freq wB97X Def2-SVP D4 SlowConv TightSCF Defgrid2 Def2/J RIJCOSX CPCM(Water)
|  5>
|  6>
|  7>
|  8> %maxcore 4500
|  9>
| 10> %geom
| 11> Maxiter 150
| 12> END
| 13>
| 14> * xyzfile 1 1 11_prot_aq_1.xyz
| 15>
| 16>                          ****END OF INPUT****
 Total Charge           Charge          ....    1
 Multiplicity           Mult            ....    1
 Number of Electrons    NEL             ....   56
Dispersion correction           -0.002063943
FINAL SINGLE POINT ENERGY      -307.410085334984
Dispersion correction            ... Starting D4
Dispersion correction           -0.002064538
FINAL SINGLE POINT ENERGY      -307.411525952796
Dispersion correction            ... Starting D4
Dispersion correction           -0.002061812
FINAL SINGLE POINT ENERGY      -307.411696982317
Dispersion correction            ... Starting D4
FINAL SINGLE POINT ENERGY      -307.411806666179
FINAL SINGLE POINT ENERGY      -307.411871425446
FINAL SINGLE POINT ENERGY      -307.411894153265
FINAL SINGLE POINT ENERGY      -307.411909963017
FINAL SINGLE POINT ENERGY      -307.411916644817
Dispersion correction           -0.002067638
FINAL SINGLE POINT ENERGY      -307.411921757267
Dispersion correction            ... Starting D4
Dispersion correction           -0.002067542
FINAL SINGLE POINT ENERGY      -307.411925216899
Dispersion correction            ... Starting D4
                    ***********************HURRAY********************

CARTESIAN COORDINATES (ANGSTROEM)
---------------------------------
  N     -1.193699   -0.093118   -0.026031
  C     -0.000000   -0.648672   -0.000034
  N      1.193715   -0.093162    0.026101
  H     -0.000019   -1.743799   -0.000166
  C     -2.367114   -0.944998    0.159488
  C      2.367105   -0.945037   -0.159604
  H     -3.025894   -0.863074   -0.717355
  H     -2.919657   -0.621761    1.054132
  H     -2.060656   -1.989806    0.289758
  H      2.060616   -1.989813   -0.290063
  H      3.025900   -0.863302    0.717246
  H      2.919642   -0.621645   -1.054195
  C     -1.487544    1.319017   -0.257842
  H     -1.568871    1.875169    0.687842
  H     -2.451559    1.373630   -0.780194
  H     -0.728046    1.775458   -0.900753
  C      1.487585    1.318913    0.258246
  H      2.451632    1.373391    0.780554
  H      0.728126    1.775190    0.901321
  H      1.568857    1.875306   -0.687300

 Multiplicity           Mult            ....    1
 Number of Electrons    NEL             ....   56
 Basis Dimension        Dim             ....  163

ORBITAL ENERGIES
----------------

  NO   OCC          E(Eh)            E(eV)
   0   2.0000     -14.486127      -394.1875
   1   2.0000     -14.486126      -394.1875
   2   2.0000     -10.400034      -282.9993
   3   2.0000     -10.318758      -280.7877
   4   2.0000     -10.318745      -280.7873
   5   2.0000     -10.317797      -280.7615
   6   2.0000     -10.317782      -280.7611
   7   2.0000      -1.154090       -31.4044
   8   2.0000      -1.090277       -29.6679
   9   2.0000      -0.898010       -24.4361
  10   2.0000      -0.874226       -23.7889
  11   2.0000      -0.857225       -23.3263
  12   2.0000      -0.808165       -21.9913
  13   2.0000      -0.709823       -19.3153
  14   2.0000      -0.656430       -17.8624
  15   2.0000      -0.652133       -17.7454
  16   2.0000      -0.627625       -17.0785
  17   2.0000      -0.590070       -16.0566
  18   2.0000      -0.579907       -15.7801
  19   2.0000      -0.550816       -14.9885
  20   2.0000      -0.533034       -14.5046
  21   2.0000      -0.528539       -14.3823
  22   2.0000      -0.519168       -14.1273
  23   2.0000      -0.517621       -14.0852
  24   2.0000      -0.509067       -13.8524
  25   2.0000      -0.486473       -13.2376
  26   2.0000      -0.470688       -12.8081
  27   2.0000      -0.357888        -9.7386
  28   0.0000       0.059849         1.6286
  29   0.0000       0.134141         3.6502
  30   0.0000       0.163890         4.4597
  31   0.0000       0.164419         4.4741
  32   0.0000       0.187919         5.1135

MULLIKEN ATOMIC CHARGES
-----------------------
   0 N :   -0.303877
   1 C :    0.231016
   2 N :   -0.303876
   3 H :    0.115483
   4 C :    0.066803
   5 C :    0.066803
   6 H :    0.083008
   7 H :    0.082177
   8 H :    0.082797
   9 H :    0.082796
  10 H :    0.083008
  11 H :    0.082178
  12 C :    0.056637
  13 H :    0.096020
  14 H :    0.078060
  15 H :    0.085126
  16 C :    0.056633
  17 H :    0.078060
  18 H :    0.085128
  19 H :    0.096022
Sum of atomic charges:    1.0000000

LOEWDIN ATOMIC CHARGES
----------------------
   0 N :    0.014337
   1 C :    0.171109
   2 N :    0.014337
   3 H :    0.065346
   4 C :    0.050959
   5 C :    0.050959
   6 H :    0.043017
   7 H :    0.044295
   8 H :    0.046942
   9 H :    0.046942
  10 H :    0.043018
  11 H :    0.044294
  12 C :    0.041138
  13 H :    0.045972
  14 H :    0.048701
  15 H :    0.046410
  16 C :    0.041138
  17 H :    0.048702
  18 H :    0.046411
  19 H :    0.045972

  Mayer bond orders larger than 0.100000
B(  0-N ,  1-C ) :   1.4429 B(  0-N ,  4-C ) :   0.9220 B(  0-N , 12-C ) :   0.9151
B(  1-C ,  2-N ) :   1.4429 B(  1-C ,  3-H ) :   0.9558 B(  2-N ,  5-C ) :   0.9220
B(  2-N , 16-C ) :   0.9151 B(  4-C ,  6-H ) :   0.9733 B(  4-C ,  7-H ) :   0.9731
B(  4-C ,  8-H ) :   0.9702 B(  5-C ,  9-H ) :   0.9702 B(  5-C , 10-H ) :   0.9733
B(  5-C , 11-H ) :   0.9731 B( 12-C , 13-H ) :   0.9706 B( 12-C , 14-H ) :   0.9668
B( 12-C , 15-H ) :   0.9698 B( 16-C , 17-H ) :   0.9668 B( 16-C , 18-H ) :   0.9698
B( 16-C , 19-H ) :   0.9706

Dispersion correction           -0.002067553
FINAL SINGLE POINT ENERGY      -307.411927090401

DIPOLE MOMENT
-------------
                                X             Y             Z
Electronic contribution:      0.00002      -1.48045      -0.00021
Nuclear contribution   :     -0.00002       1.27638       0.00019
                        -----------------------------------------
Total Dipole Moment    :      0.00000      -0.20407      -0.00002
                        -----------------------------------------
Magnitude (a.u.)       :      0.20407
Magnitude (Debye)      :      0.51871

Dispersion correction in the Hessian             ... Starting D4

VIBRATIONAL FREQUENCIES
-----------------------

Scaling factor for frequencies =  1.000000000  (already applied!)

   0:         0.00 cm**-1
   1:         0.00 cm**-1
   2:         0.00 cm**-1
   3:         0.00 cm**-1
   4:         0.00 cm**-1
   5:         0.00 cm**-1
   6:        67.23 cm**-1
   7:       143.09 cm**-1
   8:       153.14 cm**-1
   9:       167.98 cm**-1
  10:       171.01 cm**-1
  11:       218.78 cm**-1
  12:       283.32 cm**-1
  13:       314.24 cm**-1
  14:       350.76 cm**-1
  15:       416.29 cm**-1
  16:       441.59 cm**-1
  17:       500.29 cm**-1
  18:       628.39 cm**-1
  19:       892.30 cm**-1
  20:       916.25 cm**-1
  21:      1010.01 cm**-1
  22:      1088.25 cm**-1
  23:      1088.96 cm**-1
  24:      1112.33 cm**-1
  25:      1122.97 cm**-1
  26:      1128.23 cm**-1
  27:      1162.93 cm**-1
  28:      1167.25 cm**-1
  29:      1185.81 cm**-1
  30:      1245.83 cm**-1
  31:      1343.85 cm**-1
  32:      1430.75 cm**-1
  33:      1434.22 cm**-1
  34:      1436.02 cm**-1
  35:      1444.13 cm**-1
  36:      1444.22 cm**-1
  37:      1450.57 cm**-1
  38:      1456.36 cm**-1
  39:      1457.65 cm**-1
  40:      1464.89 cm**-1
  41:      1466.60 cm**-1
  42:      1478.18 cm**-1
  43:      1486.40 cm**-1
  44:      1502.43 cm**-1
  45:      1573.07 cm**-1
  46:      1798.61 cm**-1
  47:      3079.75 cm**-1
  48:      3080.59 cm**-1
  49:      3090.48 cm**-1
  50:      3094.97 cm**-1
  51:      3183.56 cm**-1
  52:      3183.64 cm**-1
  53:      3194.25 cm**-1
  54:      3196.54 cm**-1
  55:      3217.14 cm**-1
  56:      3218.13 cm**-1
  57:      3232.54 cm**-1
  58:      3236.97 cm**-1
  59:      3238.86 cm**-1

IR SPECTRUM
-----------

 Mode   freq       eps      Int      T**2         TX        TY        TZ
       cm**-1   L/(mol*cm) km/mol    a.u.
----------------------------------------------------------------------------
  6:     67.23   0.000009    0.05  0.000042  (-0.000001 -0.006496 -0.000006)
  7:    143.09   0.000484    2.44  0.001055  (-0.015540  0.000005 -0.028521)
  8:    153.14   0.000001    0.01  0.000002  (-0.000006 -0.001425 -0.000022)
  9:    167.98   0.000000    0.00  0.000000  (-0.000036 -0.000308 -0.000031)
 10:    171.01   0.000174    0.88  0.000317  (-0.012435  0.000002 -0.012745)
 11:    218.78   0.000555    2.80  0.000791  (-0.004226  0.000005 -0.027812)
 12:    283.32   0.000000    0.00  0.000000  (-0.000011  0.000254  0.000018)
 13:    314.24   0.000244    1.23  0.000242  ( 0.000003 -0.015559 -0.000015)
 14:    350.76   0.001579    7.98  0.001405  (-0.012475 -0.000011  0.035350)
 15:    416.29   0.000007    0.03  0.000005  (-0.000017  0.002265  0.000043)
 16:    441.59   0.007538   38.10  0.005327  ( 0.034152  0.000007 -0.064505)
 17:    500.29   0.002291   11.58  0.001429  (-0.003451 -0.000005  0.037644)
 18:    628.39   0.000151    0.76  0.000075  (-0.000002  0.008654  0.000000)
 19:    892.30   0.001067    5.39  0.000373  ( 0.000000  0.019315  0.000002)
 20:    916.25   0.003684   18.62  0.001255  ( 0.035422 -0.000001  0.000106)
 21:   1010.01   0.002835   14.33  0.000876  ( 0.027689  0.000000 -0.010452)
 22:   1088.25   0.004119   20.82  0.001181  ( 0.000083 -0.034369 -0.000027)
 23:   1088.96   0.000813    4.11  0.000233  ( 0.014829  0.000203 -0.003611)
 24:   1112.33   0.001340    6.77  0.000376  ( 0.000003 -0.019391 -0.000001)
 25:   1122.97   0.001502    7.59  0.000417  ( 0.017023  0.000006 -0.011290)
 26:   1128.23   0.000218    1.10  0.000060  ( 0.000011 -0.007767 -0.000013)
 27:   1162.93   0.007569   38.25  0.002031  (-0.044926  0.000004 -0.003589)
 28:   1167.25   0.000239    1.21  0.000064  ( 0.000020  0.007999 -0.000000)
 29:   1185.81   0.023591  119.22  0.006208  ( 0.078791 -0.000001 -0.000653)
 30:   1245.83   0.000879    4.44  0.000220  ( 0.013060 -0.000001 -0.007038)
 31:   1343.85   0.008702   43.98  0.002021  (-0.000002  0.044952  0.000006)
 32:   1430.75   0.008320   42.04  0.001815  (-0.042196 -0.000000 -0.005846)
 33:   1434.22   0.000029    0.15  0.000006  (-0.000074 -0.002498 -0.000045)
 34:   1436.02   0.011275   56.98  0.002450  ( 0.044763 -0.000010  0.021129)
 35:   1444.13   0.000389    1.96  0.000084  ( 0.000703 -0.009139  0.000068)
 36:   1444.22   0.001748    8.83  0.000378  ( 0.019282  0.000333  0.002422)
 37:   1450.57   0.011329   57.25  0.002437  ( 0.045098  0.000004 -0.020082)
 38:   1456.36   0.007733   39.08  0.001657  ( 0.008175 -0.000001  0.039878)
 39:   1457.65   0.000013    0.06  0.000003  (-0.000001 -0.001637 -0.000033)
 40:   1464.89   0.000127    0.64  0.000027  (-0.000007  0.005192  0.000008)
 41:   1466.60   0.004193   21.19  0.000892  ( 0.000010 -0.029871 -0.000005)
 42:   1478.18   0.007818   39.51  0.001651  ( 0.011428  0.000048 -0.038987)
 43:   1486.40   0.001853    9.36  0.000389  ( 0.000005 -0.019722 -0.000064)
 44:   1502.43   0.015074   76.18  0.003131  (-0.055954  0.000002 -0.000211)
 45:   1573.07   0.008871   44.83  0.001760  ( 0.000001  0.041950  0.000005)
 46:   1798.61   0.229056  1157.55  0.039742  ( 0.199336 -0.000004  0.002593)
 47:   3079.75   0.009764   49.34  0.000989  (-0.031365  0.000020  0.002365)
 48:   3080.59   0.001624    8.21  0.000164  (-0.000046 -0.012825  0.000002)
 49:   3090.48   0.002531   12.79  0.000256  ( 0.015908  0.000002 -0.001584)
 50:   3094.97   0.004074   20.59  0.000411  ( 0.000002 -0.020269 -0.000002)
 51:   3183.56   0.000067    0.34  0.000007  (-0.000000 -0.002567  0.000003)
 52:   3183.64   0.003115   15.74  0.000305  (-0.002963 -0.000000 -0.017221)
 53:   3194.25   0.000023    0.12  0.000002  (-0.000002 -0.001496 -0.000002)
 54:   3196.54   0.001151    5.82  0.000112  (-0.005370  0.000003 -0.009140)
 55:   3217.14   0.000804    4.06  0.000078  (-0.000005 -0.008831 -0.000002)
 56:   3218.13   0.000794    4.01  0.000077  ( 0.008390 -0.000006  0.002574)
 57:   3232.54   0.000092    0.46  0.000009  ( 0.000000 -0.002973 -0.000001)
 58:   3236.97   0.000531    2.68  0.000051  (-0.004998  0.000004  0.005117)
 59:   3238.86   0.000020    0.10  0.000002  (-0.000020 -0.001401  0.000023)

--------------------------
THERMOCHEMISTRY AT 298.15K
--------------------------

Temperature         ... 298.15 K
Pressure            ... 1.00 atm
Total Mass          ... 101.17 AMU

Throughout the following assumptions are being made:
  (1) The electronic state is orbitally nondegenerate
  (2) There are no thermally accessible electronically excited states
  (3) Hindered rotations indicated by low frequency modes are not
      treated as such but are treated as vibrations and this may
      cause some error
  (4) All equations used are the standard statistical mechanics
      equations for an ideal gas
  (5) All vibrations are strictly harmonic

freq.      67.23  E(vib)   ...       0.50
freq.     143.09  E(vib)   ...       0.41
freq.     153.14  E(vib)   ...       0.40
freq.     167.98  E(vib)   ...       0.38
freq.     171.01  E(vib)   ...       0.38
freq.     218.78  E(vib)   ...       0.33
freq.     283.32  E(vib)   ...       0.28
freq.     314.24  E(vib)   ...       0.25
freq.     350.76  E(vib)   ...       0.23
freq.     416.29  E(vib)   ...       0.18
freq.     441.59  E(vib)   ...       0.17
freq.     500.29  E(vib)   ...       0.14
freq.     628.39  E(vib)   ...       0.09
freq.     892.30  E(vib)   ...       0.03
freq.     916.25  E(vib)   ...       0.03
freq.    1010.01  E(vib)   ...       0.02
freq.    1088.25  E(vib)   ...       0.02
freq.    1088.96  E(vib)   ...       0.02
freq.    1112.33  E(vib)   ...       0.01
freq.    1122.97  E(vib)   ...       0.01
freq.    1128.23  E(vib)   ...       0.01
freq.    1162.93  E(vib)   ...       0.01
freq.    1167.25  E(vib)   ...       0.01
freq.    1185.81  E(vib)   ...       0.01
freq.    1245.83  E(vib)   ...       0.01
freq.    1343.85  E(vib)   ...       0.01
freq.    1430.75  E(vib)   ...       0.00
freq.    1434.22  E(vib)   ...       0.00
freq.    1436.02  E(vib)   ...       0.00
freq.    1444.13  E(vib)   ...       0.00
freq.    1444.22  E(vib)   ...       0.00
freq.    1450.57  E(vib)   ...       0.00
freq.    1456.36  E(vib)   ...       0.00
freq.    1457.65  E(vib)   ...       0.00
freq.    1464.89  E(vib)   ...       0.00
freq.    1466.60  E(vib)   ...       0.00
freq.    1478.18  E(vib)   ...       0.00
freq.    1486.40  E(vib)   ...       0.00
freq.    1502.43  E(vib)   ...       0.00
freq.    1573.07  E(vib)   ...       0.00
freq.    1798.61  E(vib)   ...       0.00
freq.    3079.75  E(vib)   ...       0.00
freq.    3080.59  E(vib)   ...       0.00
freq.    3090.48  E(vib)   ...       0.00
freq.    3094.97  E(vib)   ...       0.00
freq.    3183.56  E(vib)   ...       0.00
freq.    3183.64  E(vib)   ...       0.00
freq.    3194.25  E(vib)   ...       0.00
freq.    3196.54  E(vib)   ...       0.00
freq.    3217.14  E(vib)   ...       0.00
freq.    3218.13  E(vib)   ...       0.00
freq.    3232.54  E(vib)   ...       0.00
freq.    3236.97  E(vib)   ...       0.00
freq.    3238.86  E(vib)   ...       0.00

------------
INNER ENERGY
------------

The inner energy is: U= E(el) + E(ZPE) + E(vib) + E(rot) + E(trans)
    E(el)   - is the total energy from the electronic structure calculation
              = E(kin-el) + E(nuc-el) + E(el-el) + E(nuc-nuc)
    E(ZPE)  - the the zero temperature vibrational energy from the frequency calculation
    E(vib)  - the the finite temperature correction to E(ZPE) due to population
              of excited vibrational states
    E(rot)  - is the rotational thermal energy
    E(trans)- is the translational thermal energy

Summary of contributions to the inner energy U:
Electronic energy                ...   -307.41192709 Eh
Zero point energy                ...      0.18656510 Eh     117.07 kcal/mol
Thermal vibrational correction   ...      0.00640709 Eh       4.02 kcal/mol
Thermal rotational correction    ...      0.00141627 Eh       0.89 kcal/mol
Thermal translational correction ...      0.00141627 Eh       0.89 kcal/mol
-----------------------------------------------------------------------
Total thermal energy                   -307.21612235 Eh

Summary of corrections to the electronic energy:
(perhaps to be used in another calculation)
Total thermal correction                  0.00923963 Eh       5.80 kcal/mol
Non-thermal (ZPE) correction              0.18656510 Eh     117.07 kcal/mol
-----------------------------------------------------------------------
Total correction                          0.19580474 Eh     122.87 kcal/mol

--------
ENTHALPY
--------

The enthalpy is H = U + kB*T
                kB is Boltzmann's constant
Total free energy                 ...   -307.21612235 Eh
Thermal Enthalpy correction       ...      0.00094421 Eh       0.59 kcal/mol
-----------------------------------------------------------------------
Total Enthalpy                    ...   -307.21517814 Eh

Note: Rotational entropy computed according to Herzberg
Infrared and Raman Spectra, Chapter V,1, Van Nostrand Reinhold, 1945
Point Group:  C2, Symmetry Number:   2
Rotational constants in cm-1:     0.155218     0.056282     0.043320

Vibrational entropy computed according to the QRRHO of S. Grimme
Chem.Eur.J. 2012 18 9955

-------
ENTROPY
-------

The entropy contributions are T*S = T*(S(el)+S(vib)+S(rot)+S(trans))
     S(el)   - electronic entropy
     S(vib)  - vibrational entropy
     S(rot)  - rotational entropy
     S(trans)- translational entropy
The entropies will be listed as multiplied by the temperature to get
units of energy

Electronic entropy                ...      0.00000000 Eh      0.00 kcal/mol
Vibrational entropy               ...      0.01113756 Eh      6.99 kcal/mol
Rotational entropy                ...      0.01257617 Eh      7.89 kcal/mol
Translational entropy             ...      0.01888776 Eh     11.85 kcal/mol
-----------------------------------------------------------------------
Final entropy term                ...      0.04260149 Eh     26.73 kcal/mol

In case the symmetry of your molecule has not been determined correctly
or in case you have a reason to use a different symmetry number we print
out the resulting rotational entropy values for sn=1,12 :
 --------------------------------------------------------
|  sn= 1 | S(rot)=       0.01323063 Eh      8.30 kcal/mol|
|  sn= 2 | S(rot)=       0.01257617 Eh      7.89 kcal/mol|
|  sn= 3 | S(rot)=       0.01219334 Eh      7.65 kcal/mol|
|  sn= 4 | S(rot)=       0.01192171 Eh      7.48 kcal/mol|
|  sn= 5 | S(rot)=       0.01171103 Eh      7.35 kcal/mol|
|  sn= 6 | S(rot)=       0.01153888 Eh      7.24 kcal/mol|
|  sn= 7 | S(rot)=       0.01139334 Eh      7.15 kcal/mol|
|  sn= 8 | S(rot)=       0.01126726 Eh      7.07 kcal/mol|
|  sn= 9 | S(rot)=       0.01115605 Eh      7.00 kcal/mol|
|  sn=10 | S(rot)=       0.01105657 Eh      6.94 kcal/mol|
|  sn=11 | S(rot)=       0.01096658 Eh      6.88 kcal/mol|
|  sn=12 | S(rot)=       0.01088443 Eh      6.83 kcal/mol|
 --------------------------------------------------------

                             ****ORCA TERMINATED NORMALLY****
TOTAL RUN TIME: 0 days 0 hours 36 minutes 23 seconds 230 msec
