                         Program Version 5.0.4 -  RELEASE  -
|  1> # ORCA 5.0.4 - /users/bwb16179/postgrad/2024_06/pKa_Reviewer_Comments/CREST_Confs/butylamine/butylamine_deprot_aq_19.inp # write input file
|  2> # Basic Mode
|  3> #
|  4> ! Opt Freq wB97X Def2-SVP D4 SlowConv TightSCF Defgrid2 Def2/J RIJCOSX
|  5>
|  6> %PAL NPROCS 4 END
|  7>
|  8> %maxcore 4500
|  9>
| 10> %geom
| 11> Maxiter 150
| 12> END
| 13>
| 14> * xyzfile 0 1 butylamine_deprot_aq_19.xyz
| 15>
| 16>                          ****END OF INPUT****
 Total Charge           Charge          ....    0
 Multiplicity           Mult            ....    1
 Number of Electrons    NEL             ....   42
Dispersion correction           -0.001446188
FINAL SINGLE POINT ENERGY      -213.585798652253
Dispersion correction            ... Starting D4
Dispersion correction           -0.001448277
FINAL SINGLE POINT ENERGY      -213.587171546175
Dispersion correction            ... Starting D4
Dispersion correction           -0.001449187
FINAL SINGLE POINT ENERGY      -213.587456567250
Dispersion correction            ... Starting D4
FINAL SINGLE POINT ENERGY      -213.587622222961
FINAL SINGLE POINT ENERGY      -213.587663285203
FINAL SINGLE POINT ENERGY      -213.587694633907
Dispersion correction           -0.001451368
FINAL SINGLE POINT ENERGY      -213.587707150182
Dispersion correction            ... Starting D4
Dispersion correction           -0.001451419
FINAL SINGLE POINT ENERGY      -213.587711434835
Dispersion correction            ... Starting D4
                    ***********************HURRAY********************

CARTESIAN COORDINATES (ANGSTROEM)
---------------------------------
  C     -1.744191    0.836857    0.378963
  C     -1.231376   -0.568720    0.068389
  H     -2.149203    1.307991   -0.531339
  H     -0.940465    1.492530    0.743915
  H     -2.550516    0.816331    1.128970
  C     -0.031678   -0.600631   -0.888505
  H     -2.058120   -1.155283   -0.366231
  H     -0.964462   -1.094037    1.005093
  C      1.333894   -0.488962   -0.215536
  H     -0.134840    0.211488   -1.629603
  H     -0.039300   -1.546658   -1.456370
  N      1.494395    0.737642    0.553895
  H      2.107220   -0.497735   -1.001723
  H      1.500627   -1.407930    0.388063
  H      2.468132    0.860317    0.821069
  H      0.972571    0.678818    1.426531

 Multiplicity           Mult            ....    1
 Number of Electrons    NEL             ....   42
 Basis Dimension        Dim             ....  125

ORBITAL ENERGIES
----------------

  NO   OCC          E(Eh)            E(eV)
   0   2.0000     -14.379386      -391.2830
   1   2.0000     -10.286680      -279.9148
   2   2.0000     -10.262622      -279.2601
   3   2.0000     -10.257636      -279.1245
   4   2.0000     -10.253056      -278.9998
   5   2.0000      -0.998991       -27.1839
   6   2.0000      -0.901742       -24.5376
   7   2.0000      -0.825415       -22.4607
   8   2.0000      -0.735839       -20.0232
   9   2.0000      -0.675790       -18.3892
  10   2.0000      -0.608620       -16.5614
  11   2.0000      -0.578110       -15.7312
  12   2.0000      -0.538492       -14.6531
  13   2.0000      -0.527511       -14.3543
  14   2.0000      -0.505505       -13.7555
  15   2.0000      -0.477627       -12.9969
  16   2.0000      -0.468745       -12.7552
  17   2.0000      -0.430128       -11.7044
  18   2.0000      -0.422342       -11.4925
  19   2.0000      -0.412059       -11.2127
  20   2.0000      -0.334676        -9.1070
  21   0.0000       0.138699         3.7742
  22   0.0000       0.174862         4.7582
  23   0.0000       0.177326         4.8253
  24   0.0000       0.188807         5.1377
  25   0.0000       0.212915         5.7937

MULLIKEN ATOMIC CHARGES
-----------------------
   0 C :   -0.038448
   1 C :   -0.082004
   2 H :    0.024508
   3 H :    0.021727
   4 H :    0.024305
   5 C :   -0.021245
   6 H :    0.020682
   7 H :    0.007308
   8 C :    0.048796
   9 H :    0.015967
  10 H :    0.014191
  11 N :   -0.247208
  12 H :    0.016971
  13 H :   -0.002780
  14 H :    0.099452
  15 H :    0.097778
Sum of atomic charges:   -0.0000000

LOEWDIN ATOMIC CHARGES
----------------------
   0 C :   -0.067362
   1 C :   -0.050259
   2 H :    0.024264
   3 H :    0.020732
   4 H :    0.022500
   5 C :   -0.047682
   6 H :    0.023869
   7 H :    0.016135
   8 C :    0.011867
   9 H :    0.023256
  10 H :    0.023945
  11 N :   -0.125032
  12 H :    0.019875
  13 H :   -0.002192
  14 H :    0.055859
  15 H :    0.050224

  Mayer bond orders larger than 0.100000
B(  0-C ,  1-C ) :   1.0812 B(  0-C ,  2-H ) :   0.9735 B(  0-C ,  3-H ) :   0.9689
B(  0-C ,  4-H ) :   0.9734 B(  1-C ,  5-C ) :   1.0497 B(  1-C ,  6-H ) :   0.9589
B(  1-C ,  7-H ) :   0.9584 B(  5-C ,  8-C ) :   1.0747 B(  5-C ,  9-H ) :   0.9492
B(  5-C , 10-H ) :   0.9517 B(  8-C , 11-N ) :   1.0774 B(  8-C , 12-H ) :   0.9571
B(  8-C , 13-H ) :   0.9513 B( 11-N , 14-H ) :   0.9721 B( 11-N , 15-H ) :   0.9637

Dispersion correction           -0.001451372
FINAL SINGLE POINT ENERGY      -213.587713513598

DIPOLE MOMENT
-------------
                                X             Y             Z
Electronic contribution:      1.77936      -0.00494      -0.14058
Nuclear contribution   :     -1.53272      -0.32763       0.44179
                        -----------------------------------------
Total Dipole Moment    :      0.24663      -0.33257       0.30121
                        -----------------------------------------
Magnitude (a.u.)       :      0.51202
Magnitude (Debye)      :      1.30144

Dispersion correction in the Hessian             ... Starting D4

VIBRATIONAL FREQUENCIES
-----------------------

Scaling factor for frequencies =  1.000000000  (already applied!)

   0:         0.00 cm**-1
   1:         0.00 cm**-1
   2:         0.00 cm**-1
   3:         0.00 cm**-1
   4:         0.00 cm**-1
   5:         0.00 cm**-1
   6:        98.06 cm**-1
   7:       162.43 cm**-1
   8:       211.84 cm**-1
   9:       257.50 cm**-1
  10:       329.76 cm**-1
  11:       363.47 cm**-1
  12:       483.93 cm**-1
  13:       765.37 cm**-1
  14:       832.84 cm**-1
  15:       852.24 cm**-1
  16:       854.89 cm**-1
  17:       953.75 cm**-1
  18:       989.00 cm**-1
  19:      1069.96 cm**-1
  20:      1091.14 cm**-1
  21:      1143.74 cm**-1
  22:      1163.29 cm**-1
  23:      1216.73 cm**-1
  24:      1255.29 cm**-1
  25:      1301.45 cm**-1
  26:      1352.85 cm**-1
  27:      1360.68 cm**-1
  28:      1400.54 cm**-1
  29:      1413.06 cm**-1
  30:      1441.39 cm**-1
  31:      1459.52 cm**-1
  32:      1470.07 cm**-1
  33:      1475.51 cm**-1
  34:      1486.88 cm**-1
  35:      1495.28 cm**-1
  36:      1646.65 cm**-1
  37:      2980.97 cm**-1
  38:      3049.22 cm**-1
  39:      3063.64 cm**-1
  40:      3066.94 cm**-1
  41:      3106.11 cm**-1
  42:      3109.98 cm**-1
  43:      3122.76 cm**-1
  44:      3155.12 cm**-1
  45:      3183.99 cm**-1
  46:      3564.60 cm**-1
  47:      3644.15 cm**-1

IR SPECTRUM
-----------

 Mode   freq       eps      Int      T**2         TX        TY        TZ
       cm**-1   L/(mol*cm) km/mol    a.u.
----------------------------------------------------------------------------
  6:     98.06   0.000156    0.79  0.000496  ( 0.005087 -0.016021 -0.014600)
  7:    162.43   0.001619    8.18  0.003110  ( 0.053326  0.009973 -0.012926)
  8:    211.84   0.000206    1.04  0.000304  (-0.013003 -0.001139  0.011567)
  9:    257.50   0.007777   39.30  0.009425  (-0.093042 -0.014865  0.023398)
 10:    329.76   0.004575   23.12  0.004329  ( 0.059460  0.027431 -0.006433)
 11:    363.47   0.000261    1.32  0.000224  (-0.010994 -0.010178  0.000099)
 12:    483.93   0.000921    4.66  0.000594  ( 0.013110  0.020547  0.000179)
 13:    765.37   0.000545    2.76  0.000222  ( 0.011575  0.004070  0.008473)
 14:    832.84   0.002587   13.08  0.000969  (-0.011832  0.028796 -0.000524)
 15:    852.24   0.005160   26.08  0.001889  (-0.010225 -0.042245 -0.000550)
 16:    854.89   0.016255   82.15  0.005934  ( 0.017108 -0.074231  0.011430)
 17:    953.75   0.000243    1.23  0.000080  (-0.008673  0.001527  0.001445)
 18:    989.00   0.002859   14.45  0.000902  (-0.007588  0.029055  0.000532)
 19:   1069.96   0.000614    3.10  0.000179  (-0.001835  0.009499  0.009248)
 20:   1091.14   0.000286    1.44  0.000082  (-0.002982  0.000490 -0.008518)
 21:   1143.74   0.001755    8.87  0.000479  ( 0.001058 -0.018438  0.011737)
 22:   1163.29   0.002052   10.37  0.000551  (-0.005278 -0.020780 -0.009531)
 23:   1216.73   0.000328    1.66  0.000084  ( 0.004983  0.007067  0.003048)
 24:   1255.29   0.000532    2.69  0.000132  ( 0.009242 -0.004697  0.004989)
 25:   1301.45   0.000255    1.29  0.000061  (-0.005799 -0.000688 -0.005203)
 26:   1352.85   0.000811    4.10  0.000187  (-0.000028 -0.008072 -0.011039)
 27:   1360.68   0.000336    1.70  0.000077  (-0.007731 -0.002945 -0.002920)
 28:   1400.54   0.000179    0.90  0.000040  (-0.006111  0.001373  0.000771)
 29:   1413.06   0.001452    7.34  0.000321  ( 0.009515 -0.014801 -0.003313)
 30:   1441.39   0.002168   10.96  0.000469  (-0.009760 -0.014981 -0.012238)
 31:   1459.52   0.001292    6.53  0.000276  (-0.004280 -0.002420 -0.015874)
 32:   1470.07   0.001023    5.17  0.000217  (-0.005885 -0.002102 -0.013348)
 33:   1475.51   0.000458    2.31  0.000097  ( 0.004217  0.006999 -0.005487)
 34:   1486.88   0.000739    3.74  0.000155  (-0.011632 -0.004446 -0.000331)
 35:   1495.28   0.000732    3.70  0.000153  (-0.007916 -0.007221  0.006165)
 36:   1646.65   0.006736   34.04  0.001277  (-0.015588 -0.005562 -0.031666)
 37:   2980.97   0.015476   78.21  0.001620  (-0.013850  0.036438 -0.010026)
 38:   3049.22   0.006725   33.98  0.000688  (-0.002862 -0.020982  0.015485)
 39:   3063.64   0.004178   21.11  0.000426  (-0.002500  0.008078  0.018816)
 40:   3066.94   0.004320   21.83  0.000440  (-0.015812  0.013596  0.002171)
 41:   3106.11   0.007404   37.42  0.000744  ( 0.025729  0.001923 -0.008844)
 42:   3109.98   0.006330   31.99  0.000635  (-0.005316 -0.003112 -0.024437)
 43:   3122.76   0.006621   33.46  0.000662  ( 0.000719 -0.025643  0.001895)
 44:   3155.12   0.005832   29.47  0.000577  (-0.004065 -0.005456  0.023033)
 45:   3183.99   0.002596   13.12  0.000254  (-0.014312 -0.005651 -0.004207)
 46:   3564.60   0.000107    0.54  0.000009  (-0.001597  0.001182 -0.002323)
 47:   3644.15   0.000472    2.39  0.000040  (-0.005965 -0.000960  0.001984)

--------------------------
THERMOCHEMISTRY AT 298.15K
--------------------------

Temperature         ... 298.15 K
Pressure            ... 1.00 atm
Total Mass          ... 73.14 AMU

Throughout the following assumptions are being made:
  (1) The electronic state is orbitally nondegenerate
  (2) There are no thermally accessible electronically excited states
  (3) Hindered rotations indicated by low frequency modes are not
      treated as such but are treated as vibrations and this may
      cause some error
  (4) All equations used are the standard statistical mechanics
      equations for an ideal gas
  (5) All vibrations are strictly harmonic

freq.      98.06  E(vib)   ...       0.46
freq.     162.43  E(vib)   ...       0.39
freq.     211.84  E(vib)   ...       0.34
freq.     257.50  E(vib)   ...       0.30
freq.     329.76  E(vib)   ...       0.24
freq.     363.47  E(vib)   ...       0.22
freq.     483.93  E(vib)   ...       0.15
freq.     765.37  E(vib)   ...       0.06
freq.     832.84  E(vib)   ...       0.04
freq.     852.24  E(vib)   ...       0.04
freq.     854.89  E(vib)   ...       0.04
freq.     953.75  E(vib)   ...       0.03
freq.     989.00  E(vib)   ...       0.02
freq.    1069.96  E(vib)   ...       0.02
freq.    1091.14  E(vib)   ...       0.02
freq.    1143.74  E(vib)   ...       0.01
freq.    1163.29  E(vib)   ...       0.01
freq.    1216.73  E(vib)   ...       0.01
freq.    1255.29  E(vib)   ...       0.01
freq.    1301.45  E(vib)   ...       0.01
freq.    1352.85  E(vib)   ...       0.01
freq.    1360.68  E(vib)   ...       0.01
freq.    1400.54  E(vib)   ...       0.00
freq.    1413.06  E(vib)   ...       0.00
freq.    1441.39  E(vib)   ...       0.00
freq.    1459.52  E(vib)   ...       0.00
freq.    1470.07  E(vib)   ...       0.00
freq.    1475.51  E(vib)   ...       0.00
freq.    1486.88  E(vib)   ...       0.00
freq.    1495.28  E(vib)   ...       0.00
freq.    1646.65  E(vib)   ...       0.00
freq.    2980.97  E(vib)   ...       0.00
freq.    3049.22  E(vib)   ...       0.00
freq.    3063.64  E(vib)   ...       0.00
freq.    3066.94  E(vib)   ...       0.00
freq.    3106.11  E(vib)   ...       0.00
freq.    3109.98  E(vib)   ...       0.00
freq.    3122.76  E(vib)   ...       0.00
freq.    3155.12  E(vib)   ...       0.00
freq.    3183.99  E(vib)   ...       0.00
freq.    3564.60  E(vib)   ...       0.00
freq.    3644.15  E(vib)   ...       0.00

------------
INNER ENERGY
------------

The inner energy is: U= E(el) + E(ZPE) + E(vib) + E(rot) + E(trans)
    E(el)   - is the total energy from the electronic structure calculation
              = E(kin-el) + E(nuc-el) + E(el-el) + E(nuc-nuc)
    E(ZPE)  - the the zero temperature vibrational energy from the frequency calculation
    E(vib)  - the the finite temperature correction to E(ZPE) due to population
              of excited vibrational states
    E(rot)  - is the rotational thermal energy
    E(trans)- is the translational thermal energy

Summary of contributions to the inner energy U:
Electronic energy                ...   -213.58771351 Eh
Zero point energy                ...      0.15137645 Eh      94.99 kcal/mol
Thermal vibrational correction   ...      0.00391827 Eh       2.46 kcal/mol
Thermal rotational correction    ...      0.00141627 Eh       0.89 kcal/mol
Thermal translational correction ...      0.00141627 Eh       0.89 kcal/mol
-----------------------------------------------------------------------
Total thermal energy                   -213.42958625 Eh

Summary of corrections to the electronic energy:
(perhaps to be used in another calculation)
Total thermal correction                  0.00675081 Eh       4.24 kcal/mol
Non-thermal (ZPE) correction              0.15137645 Eh      94.99 kcal/mol
-----------------------------------------------------------------------
Total correction                          0.15812727 Eh      99.23 kcal/mol

--------
ENTHALPY
--------

The enthalpy is H = U + kB*T
                kB is Boltzmann's constant
Total free energy                 ...   -213.42958625 Eh
Thermal Enthalpy correction       ...      0.00094421 Eh       0.59 kcal/mol
-----------------------------------------------------------------------
Total Enthalpy                    ...   -213.42864204 Eh

Note: Only C1 symmetry has been detected, increase convergence thresholds
      if your molecule has a higher symmetry. Symmetry factor of 1.0 is
      used for the rotational entropy correction.

Note: Rotational entropy computed according to Herzberg
Infrared and Raman Spectra, Chapter V,1, Van Nostrand Reinhold, 1945
Point Group:  C1, Symmetry Number:   1
Rotational constants in cm-1:     0.247562     0.111546     0.086627

Vibrational entropy computed according to the QRRHO of S. Grimme
Chem.Eur.J. 2012 18 9955

-------
ENTROPY
-------

The entropy contributions are T*S = T*(S(el)+S(vib)+S(rot)+S(trans))
     S(el)   - electronic entropy
     S(vib)  - vibrational entropy
     S(rot)  - rotational entropy
     S(trans)- translational entropy
The entropies will be listed as multiplied by the temperature to get
units of energy

Electronic entropy                ...      0.00000000 Eh      0.00 kcal/mol
Vibrational entropy               ...      0.00661863 Eh      4.15 kcal/mol
Rotational entropy                ...      0.01236014 Eh      7.76 kcal/mol
Translational entropy             ...      0.01842822 Eh     11.56 kcal/mol
-----------------------------------------------------------------------
Final entropy term                ...      0.03740699 Eh     23.47 kcal/mol

In case the symmetry of your molecule has not been determined correctly
or in case you have a reason to use a different symmetry number we print
out the resulting rotational entropy values for sn=1,12 :
 --------------------------------------------------------
|  sn= 1 | S(rot)=       0.01236014 Eh      7.76 kcal/mol|
|  sn= 2 | S(rot)=       0.01170568 Eh      7.35 kcal/mol|
|  sn= 3 | S(rot)=       0.01132285 Eh      7.11 kcal/mol|
|  sn= 4 | S(rot)=       0.01105123 Eh      6.93 kcal/mol|
|  sn= 5 | S(rot)=       0.01084054 Eh      6.80 kcal/mol|
|  sn= 6 | S(rot)=       0.01066839 Eh      6.69 kcal/mol|
|  sn= 7 | S(rot)=       0.01052285 Eh      6.60 kcal/mol|
|  sn= 8 | S(rot)=       0.01039677 Eh      6.52 kcal/mol|
|  sn= 9 | S(rot)=       0.01028556 Eh      6.45 kcal/mol|
|  sn=10 | S(rot)=       0.01018608 Eh      6.39 kcal/mol|
|  sn=11 | S(rot)=       0.01009609 Eh      6.34 kcal/mol|
|  sn=12 | S(rot)=       0.01001394 Eh      6.28 kcal/mol|
 --------------------------------------------------------

-------------------
GIBBS FREE ENERGY
-------------------

The Gibbs free energy is G = H - T*S

                             ****ORCA TERMINATED NORMALLY****
TOTAL RUN TIME: 0 days 0 hours 4 minutes 34 seconds 984 msec
