                         Program Version 5.0.4 -  RELEASE  -
|  1> # ORCA 5.0.4 - /users/bwb16179/postgrad/2024_06/pKa_Reviewer_Comments/CREST_Confs/butylamine/butylamine_deprot_aq_1.inp # write input file
|  2> # Basic Mode
|  3> #
|  4> ! Opt Freq wB97X Def2-SVP D4 SlowConv TightSCF Defgrid2 Def2/J RIJCOSX
|  5>
|  6> %PAL NPROCS 4 END
|  7>
|  8> %maxcore 4500
|  9>
| 10> %geom
| 11> Maxiter 150
| 12> END
| 13>
| 14> * xyzfile 0 1 butylamine_deprot_aq_1.xyz
| 15>
| 16>                          ****END OF INPUT****
 Total Charge           Charge          ....    0
 Multiplicity           Mult            ....    1
 Number of Electrons    NEL             ....   42
Dispersion correction           -0.001390213
FINAL SINGLE POINT ENERGY      -213.589286027490
Dispersion correction            ... Starting D4
Dispersion correction           -0.001388795
FINAL SINGLE POINT ENERGY      -213.590614880185
Dispersion correction            ... Starting D4
Dispersion correction           -0.001389033
FINAL SINGLE POINT ENERGY      -213.590794382243
Dispersion correction            ... Starting D4
FINAL SINGLE POINT ENERGY      -213.590852617042
Dispersion correction           -0.001389602
FINAL SINGLE POINT ENERGY      -213.590857670310
Dispersion correction            ... Starting D4
Dispersion correction           -0.001389707
FINAL SINGLE POINT ENERGY      -213.590859540508
Dispersion correction            ... Starting D4
                    ***********************HURRAY********************

CARTESIAN COORDINATES (ANGSTROEM)
---------------------------------
  C     -2.434548    0.263650   -0.154701
  C     -1.010544   -0.221009   -0.396241
  H     -3.098801    0.013928   -0.996046
  H     -2.464623    1.357016   -0.019435
  H     -2.861127   -0.191443    0.753880
  C     -0.056197    0.113407    0.745900
  H     -0.625716    0.223412   -1.331075
  H     -1.010751   -1.314314   -0.558642
  C      1.377945   -0.376015    0.522963
  H     -0.442564   -0.322014    1.685370
  H     -0.044865    1.209007    0.902976
  N      2.074189    0.164880   -0.631303
  H      1.375202   -1.476886    0.433211
  H      1.977175   -0.153041    1.422216
  H      2.075983    1.182879   -0.605542
  H      1.611912   -0.103561   -1.496710

 Multiplicity           Mult            ....    1
 Number of Electrons    NEL             ....   42
 Basis Dimension        Dim             ....  125

ORBITAL ENERGIES
----------------

  NO   OCC          E(Eh)            E(eV)
   0   2.0000     -14.376594      -391.2070
   1   2.0000     -10.285470      -279.8819
   2   2.0000     -10.267733      -279.3992
   3   2.0000     -10.263207      -279.2761
   4   2.0000     -10.261601      -279.2324
   5   2.0000      -0.998209       -27.1626
   6   2.0000      -0.908918       -24.7329
   7   2.0000      -0.826153       -22.4808
   8   2.0000      -0.740968       -20.1628
   9   2.0000      -0.689690       -18.7674
  10   2.0000      -0.601862       -16.3775
  11   2.0000      -0.577103       -15.7038
  12   2.0000      -0.550315       -14.9748
  13   2.0000      -0.528970       -14.3940
  14   2.0000      -0.514168       -13.9912
  15   2.0000      -0.483255       -13.1500
  16   2.0000      -0.456406       -12.4194
  17   2.0000      -0.449488       -12.2312
  18   2.0000      -0.425720       -11.5844
  19   2.0000      -0.422306       -11.4915
  20   2.0000      -0.331962        -9.0331
  21   0.0000       0.139647         3.8000
  22   0.0000       0.164766         4.4835
  23   0.0000       0.171954         4.6791
  24   0.0000       0.174156         4.7390
  25   0.0000       0.220039         5.9876

MULLIKEN ATOMIC CHARGES
-----------------------
   0 C :   -0.022607
   1 C :   -0.077536
   2 H :    0.030052
   3 H :    0.022635
   4 H :    0.024466
   5 C :   -0.057318
   6 H :   -0.001365
   7 H :    0.015814
   8 C :    0.079368
   9 H :    0.011190
  10 H :    0.003858
  11 N :   -0.253711
  12 H :    0.014314
  13 H :    0.021713
  14 H :    0.093247
  15 H :    0.095880
Sum of atomic charges:   -0.0000000

LOEWDIN ATOMIC CHARGES
----------------------
   0 C :   -0.062793
   1 C :   -0.051142
   2 H :    0.025928
   3 H :    0.023657
   4 H :    0.023878
   5 C :   -0.061959
   6 H :    0.011916
   7 H :    0.020957
   8 C :    0.009240
   9 H :    0.022426
  10 H :    0.015526
  11 N :   -0.116930
  12 H :    0.018932
  13 H :    0.020337
  14 H :    0.051469
  15 H :    0.048558

  Mayer bond orders larger than 0.100000
B(  0-C ,  1-C ) :   1.0883 B(  0-C ,  2-H ) :   0.9745 B(  0-C ,  3-H ) :   0.9745
B(  0-C ,  4-H ) :   0.9755 B(  1-C ,  5-C ) :   1.0498 B(  1-C ,  6-H ) :   0.9472
B(  1-C ,  7-H ) :   0.9577 B(  5-C ,  8-C ) :   1.0482 B(  5-C ,  9-H ) :   0.9442
B(  5-C , 10-H ) :   0.9494 B(  8-C , 11-N ) :   1.0877 B(  8-C , 12-H ) :   0.9584
B(  8-C , 13-H ) :   0.9612 B( 11-N , 14-H ) :   0.9804 B( 11-N , 15-H ) :   0.9837

Dispersion correction           -0.001389756
FINAL SINGLE POINT ENERGY      -213.590860086283

DIPOLE MOMENT
-------------
                                X             Y             Z
Electronic contribution:      2.81003      -0.18942      -0.22530
Nuclear contribution   :     -3.28176       0.38609       0.17892
                        -----------------------------------------
Total Dipole Moment    :     -0.47173       0.19666      -0.04638
                        -----------------------------------------
Magnitude (a.u.)       :      0.51318
Magnitude (Debye)      :      1.30440

Dispersion correction in the Hessian             ... Starting D4

VIBRATIONAL FREQUENCIES
-----------------------

Scaling factor for frequencies =  1.000000000  (already applied!)

   0:         0.00 cm**-1
   1:         0.00 cm**-1
   2:         0.00 cm**-1
   3:         0.00 cm**-1
   4:         0.00 cm**-1
   5:         0.00 cm**-1
   6:        81.09 cm**-1
   7:       142.70 cm**-1
   8:       234.73 cm**-1
   9:       245.94 cm**-1
  10:       316.46 cm**-1
  11:       345.63 cm**-1
  12:       506.66 cm**-1
  13:       743.30 cm**-1
  14:       804.82 cm**-1
  15:       853.24 cm**-1
  16:       870.72 cm**-1
  17:       926.31 cm**-1
  18:       988.22 cm**-1
  19:      1062.79 cm**-1
  20:      1082.46 cm**-1
  21:      1131.92 cm**-1
  22:      1173.19 cm**-1
  23:      1218.23 cm**-1
  24:      1270.50 cm**-1
  25:      1315.67 cm**-1
  26:      1323.58 cm**-1
  27:      1384.95 cm**-1
  28:      1397.44 cm**-1
  29:      1404.27 cm**-1
  30:      1426.64 cm**-1
  31:      1462.88 cm**-1
  32:      1472.06 cm**-1
  33:      1475.00 cm**-1
  34:      1476.81 cm**-1
  35:      1487.02 cm**-1
  36:      1647.35 cm**-1
  37:      3042.51 cm**-1
  38:      3055.21 cm**-1
  39:      3060.20 cm**-1
  40:      3061.92 cm**-1
  41:      3094.16 cm**-1
  42:      3110.79 cm**-1
  43:      3119.00 cm**-1
  44:      3153.42 cm**-1
  45:      3162.61 cm**-1
  46:      3561.43 cm**-1
  47:      3647.66 cm**-1

IR SPECTRUM
-----------

 Mode   freq       eps      Int      T**2         TX        TY        TZ
       cm**-1   L/(mol*cm) km/mol    a.u.
----------------------------------------------------------------------------
  6:     81.09   0.000030    0.15  0.000117  (-0.000488 -0.004686  0.009748)
  7:    142.70   0.000612    3.09  0.001339  ( 0.007320  0.035059  0.007487)
  8:    234.73   0.001971    9.96  0.002620  ( 0.012223  0.037205  0.032959)
  9:    245.94   0.000585    2.96  0.000742  ( 0.008017  0.020753  0.015716)
 10:    316.46   0.006610   33.40  0.006518  (-0.017578 -0.063944 -0.046044)
 11:    345.63   0.000573    2.90  0.000517  ( 0.016606  0.013087 -0.008380)
 12:    506.66   0.002101   10.62  0.001294  ( 0.027076  0.004122 -0.023324)
 13:    743.30   0.003363   17.00  0.001412  (-0.031077 -0.010636  0.018249)
 14:    804.82   0.013061   66.00  0.005064  (-0.066524  0.004591  0.024851)
 15:    853.24   0.016571   83.74  0.006061  ( 0.074248 -0.003928 -0.023072)
 16:    870.72   0.011508   58.16  0.004124  ( 0.056268  0.002671 -0.030842)
 17:    926.31   0.000871    4.40  0.000293  ( 0.016847  0.001528  0.002699)
 18:    988.22   0.001058    5.35  0.000334  (-0.015274  0.005565  0.008352)
 19:   1062.79   0.001099    5.55  0.000323  (-0.010727  0.009349  0.010960)
 20:   1082.46   0.000641    3.24  0.000185  (-0.010780  0.001484  0.008145)
 21:   1131.92   0.002815   14.23  0.000776  (-0.027240  0.001633  0.005609)
 22:   1173.19   0.001946    9.83  0.000518  (-0.003106 -0.009718  0.020334)
 23:   1218.23   0.000041    0.21  0.000011  ( 0.002470 -0.001593  0.001397)
 24:   1270.50   0.000539    2.72  0.000132  (-0.008132  0.004256 -0.006931)
 25:   1315.67   0.000056    0.28  0.000013  ( 0.002996  0.001920  0.000735)
 26:   1323.58   0.000072    0.36  0.000017  (-0.003951 -0.001106  0.000386)
 27:   1384.95   0.000042    0.21  0.000010  ( 0.002784 -0.001191  0.000611)
 28:   1397.44   0.003719   18.80  0.000831  ( 0.023247  0.005363 -0.016169)
 29:   1404.27   0.000112    0.57  0.000025  (-0.004112  0.002279  0.001697)
 30:   1426.64   0.000560    2.83  0.000123  ( 0.009958 -0.004278 -0.002254)
 31:   1462.88   0.000775    3.92  0.000165  (-0.005833  0.010017  0.005570)
 32:   1472.06   0.000653    3.30  0.000138  (-0.008555  0.005113 -0.006253)
 33:   1475.00   0.000430    2.17  0.000091  ( 0.003470  0.008227 -0.003354)
 34:   1476.81   0.001319    6.67  0.000279  ( 0.004108  0.013881 -0.008318)
 35:   1487.02   0.000988    5.00  0.000207  ( 0.000204  0.006784  0.012703)
 36:   1647.35   0.003550   17.94  0.000672  ( 0.004626 -0.015385  0.020356)
 37:   3042.51   0.004061   20.52  0.000417  (-0.004219  0.014719  0.013495)
 38:   3055.21   0.009089   45.93  0.000928  (-0.013373  0.015903  0.022285)
 39:   3060.20   0.006480   32.75  0.000661  (-0.022433  0.010386 -0.007051)
 40:   3061.92   0.004237   21.41  0.000432  ( 0.005217 -0.014337  0.014110)
 41:   3094.16   0.001500    7.58  0.000151  ( 0.000241  0.007300 -0.009894)
 42:   3110.79   0.008126   41.07  0.000815  (-0.003569 -0.017971  0.021899)
 43:   3119.00   0.008463   42.77  0.000847  (-0.011795 -0.024330 -0.010757)
 44:   3153.42   0.007014   35.44  0.000694  ( 0.006457  0.023196 -0.010692)
 45:   3162.61   0.004945   24.99  0.000488  ( 0.007877  0.006634  0.019543)
 46:   3561.43   0.000013    0.07  0.000001  ( 0.000421 -0.000749  0.000624)
 47:   3647.66   0.000347    1.75  0.000030  (-0.001071 -0.004151 -0.003361)

--------------------------
THERMOCHEMISTRY AT 298.15K
--------------------------

Temperature         ... 298.15 K
Pressure            ... 1.00 atm
Total Mass          ... 73.14 AMU

Throughout the following assumptions are being made:
  (1) The electronic state is orbitally nondegenerate
  (2) There are no thermally accessible electronically excited states
  (3) Hindered rotations indicated by low frequency modes are not
      treated as such but are treated as vibrations and this may
      cause some error
  (4) All equations used are the standard statistical mechanics
      equations for an ideal gas
  (5) All vibrations are strictly harmonic

freq.      81.09  E(vib)   ...       0.48
freq.     142.70  E(vib)   ...       0.41
freq.     234.73  E(vib)   ...       0.32
freq.     245.94  E(vib)   ...       0.31
freq.     316.46  E(vib)   ...       0.25
freq.     345.63  E(vib)   ...       0.23
freq.     506.66  E(vib)   ...       0.14
freq.     743.30  E(vib)   ...       0.06
freq.     804.82  E(vib)   ...       0.05
freq.     853.24  E(vib)   ...       0.04
freq.     870.72  E(vib)   ...       0.04
freq.     926.31  E(vib)   ...       0.03
freq.     988.22  E(vib)   ...       0.02
freq.    1062.79  E(vib)   ...       0.02
freq.    1082.46  E(vib)   ...       0.02
freq.    1131.92  E(vib)   ...       0.01
freq.    1173.19  E(vib)   ...       0.01
freq.    1218.23  E(vib)   ...       0.01
freq.    1270.50  E(vib)   ...       0.01
freq.    1315.67  E(vib)   ...       0.01
freq.    1323.58  E(vib)   ...       0.01
freq.    1384.95  E(vib)   ...       0.00
freq.    1397.44  E(vib)   ...       0.00
freq.    1404.27  E(vib)   ...       0.00
freq.    1426.64  E(vib)   ...       0.00
freq.    1462.88  E(vib)   ...       0.00
freq.    1472.06  E(vib)   ...       0.00
freq.    1475.00  E(vib)   ...       0.00
freq.    1476.81  E(vib)   ...       0.00
freq.    1487.02  E(vib)   ...       0.00
freq.    1647.35  E(vib)   ...       0.00
freq.    3042.51  E(vib)   ...       0.00
freq.    3055.21  E(vib)   ...       0.00
freq.    3060.20  E(vib)   ...       0.00
freq.    3061.92  E(vib)   ...       0.00
freq.    3094.16  E(vib)   ...       0.00
freq.    3110.79  E(vib)   ...       0.00
freq.    3119.00  E(vib)   ...       0.00
freq.    3153.42  E(vib)   ...       0.00
freq.    3162.61  E(vib)   ...       0.00
freq.    3561.43  E(vib)   ...       0.00
freq.    3647.66  E(vib)   ...       0.00

------------
INNER ENERGY
------------

The inner energy is: U= E(el) + E(ZPE) + E(vib) + E(rot) + E(trans)
    E(el)   - is the total energy from the electronic structure calculation
              = E(kin-el) + E(nuc-el) + E(el-el) + E(nuc-nuc)
    E(ZPE)  - the the zero temperature vibrational energy from the frequency calculation
    E(vib)  - the the finite temperature correction to E(ZPE) due to population
              of excited vibrational states
    E(rot)  - is the rotational thermal energy
    E(trans)- is the translational thermal energy

Summary of contributions to the inner energy U:
Electronic energy                ...   -213.59086009 Eh
Zero point energy                ...      0.15113705 Eh      94.84 kcal/mol
Thermal vibrational correction   ...      0.00400360 Eh       2.51 kcal/mol
Thermal rotational correction    ...      0.00141627 Eh       0.89 kcal/mol
Thermal translational correction ...      0.00141627 Eh       0.89 kcal/mol
-----------------------------------------------------------------------
Total thermal energy                   -213.43288690 Eh

Summary of corrections to the electronic energy:
(perhaps to be used in another calculation)
Total thermal correction                  0.00683614 Eh       4.29 kcal/mol
Non-thermal (ZPE) correction              0.15113705 Eh      94.84 kcal/mol
-----------------------------------------------------------------------
Total correction                          0.15797319 Eh      99.13 kcal/mol

--------
ENTHALPY
--------

The enthalpy is H = U + kB*T
                kB is Boltzmann's constant
Total free energy                 ...   -213.43288690 Eh
Thermal Enthalpy correction       ...      0.00094421 Eh       0.59 kcal/mol
-----------------------------------------------------------------------
Total Enthalpy                    ...   -213.43194269 Eh

Note: Only C1 symmetry has been detected, increase convergence thresholds
      if your molecule has a higher symmetry. Symmetry factor of 1.0 is
      used for the rotational entropy correction.

Note: Rotational entropy computed according to Herzberg
Infrared and Raman Spectra, Chapter V,1, Van Nostrand Reinhold, 1945
Point Group:  C1, Symmetry Number:   1
Rotational constants in cm-1:     0.399927     0.077625     0.071499

Vibrational entropy computed according to the QRRHO of S. Grimme
Chem.Eur.J. 2012 18 9955

-------
ENTROPY
-------

The entropy contributions are T*S = T*(S(el)+S(vib)+S(rot)+S(trans))
     S(el)   - electronic entropy
     S(vib)  - vibrational entropy
     S(rot)  - rotational entropy
     S(trans)- translational entropy
The entropies will be listed as multiplied by the temperature to get
units of energy

Electronic entropy                ...      0.00000000 Eh      0.00 kcal/mol
Vibrational entropy               ...      0.00680024 Eh      4.27 kcal/mol
Rotational entropy                ...      0.01239548 Eh      7.78 kcal/mol
Translational entropy             ...      0.01842822 Eh     11.56 kcal/mol
-----------------------------------------------------------------------
Final entropy term                ...      0.03762394 Eh     23.61 kcal/mol

In case the symmetry of your molecule has not been determined correctly
or in case you have a reason to use a different symmetry number we print
out the resulting rotational entropy values for sn=1,12 :
 --------------------------------------------------------
|  sn= 1 | S(rot)=       0.01239548 Eh      7.78 kcal/mol|
|  sn= 2 | S(rot)=       0.01174102 Eh      7.37 kcal/mol|
|  sn= 3 | S(rot)=       0.01135819 Eh      7.13 kcal/mol|
|  sn= 4 | S(rot)=       0.01108656 Eh      6.96 kcal/mol|
|  sn= 5 | S(rot)=       0.01087588 Eh      6.82 kcal/mol|
|  sn= 6 | S(rot)=       0.01070373 Eh      6.72 kcal/mol|
|  sn= 7 | S(rot)=       0.01055819 Eh      6.63 kcal/mol|
|  sn= 8 | S(rot)=       0.01043211 Eh      6.55 kcal/mol|
|  sn= 9 | S(rot)=       0.01032090 Eh      6.48 kcal/mol|
|  sn=10 | S(rot)=       0.01022142 Eh      6.41 kcal/mol|
|  sn=11 | S(rot)=       0.01013143 Eh      6.36 kcal/mol|
|  sn=12 | S(rot)=       0.01004928 Eh      6.31 kcal/mol|
 --------------------------------------------------------

-------------------
GIBBS FREE ENERGY
-------------------

The Gibbs free energy is G = H - T*S

                             ****ORCA TERMINATED NORMALLY****
TOTAL RUN TIME: 0 days 0 hours 3 minutes 56 seconds 414 msec
