                         Program Version 5.0.4 -  RELEASE  -
|  1> # ORCA 5.0.4 - /users/bwb16179/postgrad/2024_06/pKa_Reviewer_Comments/CREST_Confs/butylamine/butylamine_deprot_aq_12.inp # write input file
|  2> # Basic Mode
|  3> #
|  4> ! Opt Freq wB97X Def2-SVP D4 SlowConv TightSCF Defgrid2 Def2/J RIJCOSX
|  5>
|  6> %PAL NPROCS 4 END
|  7>
|  8> %maxcore 4500
|  9>
| 10> %geom
| 11> Maxiter 150
| 12> END
| 13>
| 14> * xyzfile 0 1 butylamine_deprot_aq_12.xyz
| 15>
| 16>                          ****END OF INPUT****
 Total Charge           Charge          ....    0
 Multiplicity           Mult            ....    1
 Number of Electrons    NEL             ....   42
Dispersion correction           -0.001453305
FINAL SINGLE POINT ENERGY      -213.586386064453
Dispersion correction            ... Starting D4
Dispersion correction           -0.001452031
FINAL SINGLE POINT ENERGY      -213.587713267482
Dispersion correction            ... Starting D4
Dispersion correction           -0.001452613
FINAL SINGLE POINT ENERGY      -213.587913267976
Dispersion correction            ... Starting D4
FINAL SINGLE POINT ENERGY      -213.587991384012
FINAL SINGLE POINT ENERGY      -213.588002372937
Dispersion correction           -0.001453667
FINAL SINGLE POINT ENERGY      -213.588011408850
Dispersion correction            ... Starting D4
Dispersion correction           -0.001453715
FINAL SINGLE POINT ENERGY      -213.588016092028
Dispersion correction            ... Starting D4
                    ***********************HURRAY********************

CARTESIAN COORDINATES (ANGSTROEM)
---------------------------------
  C     -1.759260    0.827211    0.372647
  C     -1.227466   -0.576695    0.092779
  H     -2.589585    0.809337    1.095443
  H     -2.134235    1.294832   -0.552301
  H     -0.976675    1.487185    0.775153
  C     -0.033118   -0.624973   -0.869607
  H     -2.050576   -1.183457   -0.319791
  H     -0.948442   -1.070302    1.042212
  C      1.345218   -0.483810   -0.212446
  H     -0.155119    0.156226   -1.643857
  H     -0.038449   -1.585789   -1.412798
  N      1.623731    0.727812    0.537691
  H      2.117485   -0.588659   -0.994470
  H      1.499815   -1.339148    0.469128
  H      1.032391    0.799443    1.361583
  H      1.454656    1.558594   -0.025520

 Multiplicity           Mult            ....    1
 Number of Electrons    NEL             ....   42
 Basis Dimension        Dim             ....  125

ORBITAL ENERGIES
----------------

  NO   OCC          E(Eh)            E(eV)
   0   2.0000     -14.377041      -391.2192
   1   2.0000     -10.285787      -279.8905
   2   2.0000     -10.268182      -279.4114
   3   2.0000     -10.264232      -279.3039
   4   2.0000     -10.261763      -279.2368
   5   2.0000      -0.997672       -27.1480
   6   2.0000      -0.906519       -24.6676
   7   2.0000      -0.829178       -22.5631
   8   2.0000      -0.742054       -20.1923
   9   2.0000      -0.687366       -18.7042
  10   2.0000      -0.605624       -16.4799
  11   2.0000      -0.567532       -15.4433
  12   2.0000      -0.563917       -15.3450
  13   2.0000      -0.517503       -14.0820
  14   2.0000      -0.508236       -13.8298
  15   2.0000      -0.497758       -13.5447
  16   2.0000      -0.461245       -12.5511
  17   2.0000      -0.437230       -11.8976
  18   2.0000      -0.432440       -11.7673
  19   2.0000      -0.422347       -11.4927
  20   2.0000      -0.329307        -8.9609
  21   0.0000       0.136631         3.7179
  22   0.0000       0.168736         4.5915
  23   0.0000       0.172235         4.6868
  24   0.0000       0.181628         4.9423
  25   0.0000       0.212233         5.7752

MULLIKEN ATOMIC CHARGES
-----------------------
   0 C :   -0.035918
   1 C :   -0.065817
   2 H :    0.031838
   3 H :    0.026833
   4 H :   -0.009386
   5 C :   -0.044035
   6 H :    0.023028
   7 H :    0.012137
   8 C :    0.056754
   9 H :    0.004801
  10 H :    0.015466
  11 N :   -0.251060
  12 H :    0.021432
  13 H :    0.016545
  14 H :    0.101210
  15 H :    0.096171
Sum of atomic charges:   -0.0000000

LOEWDIN ATOMIC CHARGES
----------------------
   0 C :   -0.066779
   1 C :   -0.049765
   2 H :    0.026498
   3 H :    0.024082
   4 H :    0.010348
   5 C :   -0.062074
   6 H :    0.025234
   7 H :    0.018802
   8 C :    0.008911
   9 H :    0.016239
  10 H :    0.025847
  11 N :   -0.113899
  12 H :    0.019548
  13 H :    0.018996
  14 H :    0.048016
  15 H :    0.049994

  Mayer bond orders larger than 0.100000
B(  0-C ,  1-C ) :   1.0806 B(  0-C ,  2-H ) :   0.9732 B(  0-C ,  3-H ) :   0.9739
B(  0-C ,  4-H ) :   0.9689 B(  1-C ,  5-C ) :   1.0410 B(  1-C ,  6-H ) :   0.9579
B(  1-C ,  7-H ) :   0.9585 B(  5-C ,  8-C ) :   1.0476 B(  5-C ,  9-H ) :   0.9514
B(  5-C , 10-H ) :   0.9440 B(  8-C , 11-N ) :   1.0955 B(  8-C , 12-H ) :   0.9618
B(  8-C , 13-H ) :   0.9597 B( 11-N , 14-H ) :   0.9818 B( 11-N , 15-H ) :   0.9801

Dispersion correction           -0.001453673
FINAL SINGLE POINT ENERGY      -213.588019156769

DIPOLE MOMENT
-------------
                                X             Y             Z
Electronic contribution:      2.08703      -0.26289       0.05091
Nuclear contribution   :     -2.58178       0.28934      -0.17803
                        -----------------------------------------
Total Dipole Moment    :     -0.49474       0.02645      -0.12712
                        -----------------------------------------
Magnitude (a.u.)       :      0.51150
Magnitude (Debye)      :      1.30012

Dispersion correction in the Hessian             ... Starting D4

VIBRATIONAL FREQUENCIES
-----------------------

Scaling factor for frequencies =  1.000000000  (already applied!)

   0:         0.00 cm**-1
   1:         0.00 cm**-1
   2:         0.00 cm**-1
   3:         0.00 cm**-1
   4:         0.00 cm**-1
   5:         0.00 cm**-1
   6:        81.63 cm**-1
   7:       158.48 cm**-1
   8:       223.02 cm**-1
   9:       292.53 cm**-1
  10:       335.77 cm**-1
  11:       363.80 cm**-1
  12:       484.60 cm**-1
  13:       752.91 cm**-1
  14:       798.93 cm**-1
  15:       833.36 cm**-1
  16:       852.91 cm**-1
  17:       933.25 cm**-1
  18:       985.72 cm**-1
  19:      1061.31 cm**-1
  20:      1066.82 cm**-1
  21:      1121.46 cm**-1
  22:      1176.30 cm**-1
  23:      1212.94 cm**-1
  24:      1277.15 cm**-1
  25:      1293.66 cm**-1
  26:      1356.70 cm**-1
  27:      1382.49 cm**-1
  28:      1403.68 cm**-1
  29:      1404.36 cm**-1
  30:      1412.07 cm**-1
  31:      1461.03 cm**-1
  32:      1468.63 cm**-1
  33:      1472.63 cm**-1
  34:      1474.72 cm**-1
  35:      1488.86 cm**-1
  36:      1646.10 cm**-1
  37:      3046.89 cm**-1
  38:      3056.39 cm**-1
  39:      3059.49 cm**-1
  40:      3067.09 cm**-1
  41:      3105.81 cm**-1
  42:      3114.10 cm**-1
  43:      3115.74 cm**-1
  44:      3157.96 cm**-1
  45:      3173.76 cm**-1
  46:      3568.03 cm**-1
  47:      3656.61 cm**-1

IR SPECTRUM
-----------

 Mode   freq       eps      Int      T**2         TX        TY        TZ
       cm**-1   L/(mol*cm) km/mol    a.u.
----------------------------------------------------------------------------
  6:     81.63   0.000002    0.01  0.000006  ( 0.000735 -0.001154 -0.002023)
  7:    158.48   0.000469    2.37  0.000923  ( 0.002541  0.021642 -0.021160)
  8:    223.02   0.000215    1.09  0.000301  ( 0.013369  0.005682 -0.009484)
  9:    292.53   0.001595    8.06  0.001702  (-0.007060  0.002087 -0.040592)
 10:    335.77   0.007624   38.53  0.007085  (-0.026751 -0.047798  0.063915)
 11:    363.80   0.000481    2.43  0.000413  ( 0.007046 -0.001544  0.018987)
 12:    484.60   0.001545    7.81  0.000995  ( 0.013615  0.012916  0.025348)
 13:    752.91   0.000843    4.26  0.000349  ( 0.017810 -0.000365  0.005660)
 14:    798.93   0.027999  141.49  0.010936  (-0.085131 -0.042513 -0.043377)
 15:    833.36   0.006340   32.04  0.002374  ( 0.040445  0.020500  0.017830)
 16:    852.91   0.011166   56.43  0.004085  ( 0.056468  0.018836  0.023282)
 17:    933.25   0.000650    3.28  0.000217  ( 0.014709  0.000716 -0.000684)
 18:    985.72   0.002568   12.98  0.000813  ( 0.026899 -0.003490  0.008788)
 19:   1061.31   0.000223    1.13  0.000066  ( 0.003722 -0.006854  0.002200)
 20:   1066.82   0.001812    9.16  0.000530  (-0.007586 -0.009001 -0.019788)
 21:   1121.46   0.000824    4.16  0.000229  ( 0.013293  0.002167  0.006911)
 22:   1176.30   0.002800   14.15  0.000743  (-0.005868 -0.022784 -0.013753)
 23:   1212.94   0.000042    0.21  0.000011  ( 0.000208 -0.002973 -0.001427)
 24:   1277.15   0.000900    4.55  0.000220  (-0.014374  0.001927  0.003089)
 25:   1293.66   0.000159    0.80  0.000038  ( 0.005613  0.001132  0.002365)
 26:   1356.70   0.000247    1.25  0.000057  ( 0.006183  0.003889  0.001836)
 27:   1382.49   0.000071    0.36  0.000016  (-0.002673 -0.002400 -0.001785)
 28:   1403.68   0.001078    5.45  0.000240  ( 0.013240  0.005430  0.005909)
 29:   1404.36   0.002366   11.95  0.000526  (-0.007866 -0.017727 -0.012228)
 30:   1412.07   0.001119    5.66  0.000247  (-0.006035  0.014167  0.003190)
 31:   1461.03   0.000637    3.22  0.000136  ( 0.002217 -0.003027  0.011048)
 32:   1468.63   0.000985    4.98  0.000209  ( 0.013104 -0.000127  0.006121)
 33:   1472.63   0.000741    3.75  0.000157  (-0.000859  0.008955 -0.008728)
 34:   1474.72   0.001285    6.49  0.000272  ( 0.001994  0.005363  0.015466)
 35:   1488.86   0.000829    4.19  0.000174  (-0.009729 -0.007647  0.004551)
 36:   1646.10   0.003825   19.33  0.000725  ( 0.016780 -0.019355 -0.008301)
 37:   3046.89   0.004721   23.86  0.000484  (-0.003558  0.004800 -0.021163)
 38:   3056.39   0.005407   27.33  0.000552  ( 0.005221  0.018565 -0.013424)
 39:   3059.49   0.008171   41.29  0.000833  (-0.020259  0.019489  0.006574)
 40:   3067.09   0.003592   18.15  0.000366  (-0.010034  0.015823  0.003805)
 41:   3105.81   0.005752   29.07  0.000578  (-0.014736  0.017600  0.007143)
 42:   3114.10   0.005221   26.38  0.000523  (-0.010581 -0.011397 -0.016774)
 43:   3115.74   0.008497   42.94  0.000851  (-0.007214 -0.021121  0.018785)
 44:   3157.96   0.005287   26.72  0.000522  (-0.000895 -0.002899  0.022655)
 45:   3173.76   0.005854   29.58  0.000576  (-0.021889 -0.008978 -0.003986)
 46:   3568.03   0.000033    0.17  0.000003  ( 0.000708  0.001486  0.000466)
 47:   3656.61   0.000565    2.85  0.000048  (-0.001620 -0.002665  0.006201)

--------------------------
THERMOCHEMISTRY AT 298.15K
--------------------------

Temperature         ... 298.15 K
Pressure            ... 1.00 atm
Total Mass          ... 73.14 AMU

Throughout the following assumptions are being made:
  (1) The electronic state is orbitally nondegenerate
  (2) There are no thermally accessible electronically excited states
  (3) Hindered rotations indicated by low frequency modes are not
      treated as such but are treated as vibrations and this may
      cause some error
  (4) All equations used are the standard statistical mechanics
      equations for an ideal gas
  (5) All vibrations are strictly harmonic

freq.      81.63  E(vib)   ...       0.48
freq.     158.48  E(vib)   ...       0.39
freq.     223.02  E(vib)   ...       0.33
freq.     292.53  E(vib)   ...       0.27
freq.     335.77  E(vib)   ...       0.24
freq.     363.80  E(vib)   ...       0.22
freq.     484.60  E(vib)   ...       0.15
freq.     752.91  E(vib)   ...       0.06
freq.     798.93  E(vib)   ...       0.05
freq.     833.36  E(vib)   ...       0.04
freq.     852.91  E(vib)   ...       0.04
freq.     933.25  E(vib)   ...       0.03
freq.     985.72  E(vib)   ...       0.02
freq.    1061.31  E(vib)   ...       0.02
freq.    1066.82  E(vib)   ...       0.02
freq.    1121.46  E(vib)   ...       0.01
freq.    1176.30  E(vib)   ...       0.01
freq.    1212.94  E(vib)   ...       0.01
freq.    1277.15  E(vib)   ...       0.01
freq.    1293.66  E(vib)   ...       0.01
freq.    1356.70  E(vib)   ...       0.01
freq.    1382.49  E(vib)   ...       0.01
freq.    1403.68  E(vib)   ...       0.00
freq.    1404.36  E(vib)   ...       0.00
freq.    1412.07  E(vib)   ...       0.00
freq.    1461.03  E(vib)   ...       0.00
freq.    1468.63  E(vib)   ...       0.00
freq.    1472.63  E(vib)   ...       0.00
freq.    1474.72  E(vib)   ...       0.00
freq.    1488.86  E(vib)   ...       0.00
freq.    1646.10  E(vib)   ...       0.00
freq.    3046.89  E(vib)   ...       0.00
freq.    3056.39  E(vib)   ...       0.00
freq.    3059.49  E(vib)   ...       0.00
freq.    3067.09  E(vib)   ...       0.00
freq.    3105.81  E(vib)   ...       0.00
freq.    3114.10  E(vib)   ...       0.00
freq.    3115.74  E(vib)   ...       0.00
freq.    3157.96  E(vib)   ...       0.00
freq.    3173.76  E(vib)   ...       0.00
freq.    3568.03  E(vib)   ...       0.00
freq.    3656.61  E(vib)   ...       0.00

------------
INNER ENERGY
------------

The inner energy is: U= E(el) + E(ZPE) + E(vib) + E(rot) + E(trans)
    E(el)   - is the total energy from the electronic structure calculation
              = E(kin-el) + E(nuc-el) + E(el-el) + E(nuc-nuc)
    E(ZPE)  - the the zero temperature vibrational energy from the frequency calculation
    E(vib)  - the the finite temperature correction to E(ZPE) due to population
              of excited vibrational states
    E(rot)  - is the rotational thermal energy
    E(trans)- is the translational thermal energy

Summary of contributions to the inner energy U:
Electronic energy                ...   -213.58801916 Eh
Zero point energy                ...      0.15126954 Eh      94.92 kcal/mol
Thermal vibrational correction   ...      0.00391309 Eh       2.46 kcal/mol
Thermal rotational correction    ...      0.00141627 Eh       0.89 kcal/mol
Thermal translational correction ...      0.00141627 Eh       0.89 kcal/mol
-----------------------------------------------------------------------
Total thermal energy                   -213.43000399 Eh

Summary of corrections to the electronic energy:
(perhaps to be used in another calculation)
Total thermal correction                  0.00674563 Eh       4.23 kcal/mol
Non-thermal (ZPE) correction              0.15126954 Eh      94.92 kcal/mol
-----------------------------------------------------------------------
Total correction                          0.15801517 Eh      99.16 kcal/mol

--------
ENTHALPY
--------

The enthalpy is H = U + kB*T
                kB is Boltzmann's constant
Total free energy                 ...   -213.43000399 Eh
Thermal Enthalpy correction       ...      0.00094421 Eh       0.59 kcal/mol
-----------------------------------------------------------------------
Total Enthalpy                    ...   -213.42905978 Eh

Note: Only C1 symmetry has been detected, increase convergence thresholds
      if your molecule has a higher symmetry. Symmetry factor of 1.0 is
      used for the rotational entropy correction.

Note: Rotational entropy computed according to Herzberg
Infrared and Raman Spectra, Chapter V,1, Van Nostrand Reinhold, 1945
Point Group:  C1, Symmetry Number:   1
Rotational constants in cm-1:     0.246104     0.109052     0.085514

Vibrational entropy computed according to the QRRHO of S. Grimme
Chem.Eur.J. 2012 18 9955

-------
ENTROPY
-------

The entropy contributions are T*S = T*(S(el)+S(vib)+S(rot)+S(trans))
     S(el)   - electronic entropy
     S(vib)  - vibrational entropy
     S(rot)  - rotational entropy
     S(trans)- translational entropy
The entropies will be listed as multiplied by the temperature to get
units of energy

Electronic entropy                ...      0.00000000 Eh      0.00 kcal/mol
Vibrational entropy               ...      0.00657182 Eh      4.12 kcal/mol
Rotational entropy                ...      0.01237971 Eh      7.77 kcal/mol
Translational entropy             ...      0.01842822 Eh     11.56 kcal/mol
-----------------------------------------------------------------------
Final entropy term                ...      0.03737975 Eh     23.46 kcal/mol

In case the symmetry of your molecule has not been determined correctly
or in case you have a reason to use a different symmetry number we print
out the resulting rotational entropy values for sn=1,12 :
 --------------------------------------------------------
|  sn= 1 | S(rot)=       0.01237971 Eh      7.77 kcal/mol|
|  sn= 2 | S(rot)=       0.01172525 Eh      7.36 kcal/mol|
|  sn= 3 | S(rot)=       0.01134242 Eh      7.12 kcal/mol|
|  sn= 4 | S(rot)=       0.01107079 Eh      6.95 kcal/mol|
|  sn= 5 | S(rot)=       0.01086011 Eh      6.81 kcal/mol|
|  sn= 6 | S(rot)=       0.01068796 Eh      6.71 kcal/mol|
|  sn= 7 | S(rot)=       0.01054242 Eh      6.62 kcal/mol|
|  sn= 8 | S(rot)=       0.01041634 Eh      6.54 kcal/mol|
|  sn= 9 | S(rot)=       0.01030513 Eh      6.47 kcal/mol|
|  sn=10 | S(rot)=       0.01020565 Eh      6.40 kcal/mol|
|  sn=11 | S(rot)=       0.01011566 Eh      6.35 kcal/mol|
|  sn=12 | S(rot)=       0.01003351 Eh      6.30 kcal/mol|
 --------------------------------------------------------

-------------------
GIBBS FREE ENERGY
-------------------

The Gibbs free energy is G = H - T*S

                             ****ORCA TERMINATED NORMALLY****
TOTAL RUN TIME: 0 days 0 hours 4 minutes 14 seconds 702 msec
