                         Program Version 5.0.4 -  RELEASE  -
|  1> # ORCA 5.0.4 - /users/bwb16179/postgrad/2024_06/pKa_Reviewer_Comments/CREST_Confs/butylamine/butylamine_deprot_aq_17.inp # write input file
|  2> # Basic Mode
|  3> #
|  4> ! Opt Freq wB97X Def2-SVP D4 SlowConv TightSCF Defgrid2 Def2/J RIJCOSX
|  5>
|  6> %PAL NPROCS 4 END
|  7>
|  8> %maxcore 4500
|  9>
| 10> %geom
| 11> Maxiter 150
| 12> END
| 13>
| 14> * xyzfile 0 1 butylamine_deprot_aq_17.xyz
| 15>
| 16>                          ****END OF INPUT****
 Total Charge           Charge          ....    0
 Multiplicity           Mult            ....    1
 Number of Electrons    NEL             ....   42
Dispersion correction           -0.001453595
FINAL SINGLE POINT ENERGY      -213.585413814435
Dispersion correction            ... Starting D4
Dispersion correction           -0.001454607
FINAL SINGLE POINT ENERGY      -213.586755918535
Dispersion correction            ... Starting D4
Dispersion correction           -0.001455688
FINAL SINGLE POINT ENERGY      -213.587035455672
Dispersion correction            ... Starting D4
FINAL SINGLE POINT ENERGY      -213.587226033475
FINAL SINGLE POINT ENERGY      -213.587296408291
FINAL SINGLE POINT ENERGY      -213.587366280584
FINAL SINGLE POINT ENERGY      -213.587397507609
FINAL SINGLE POINT ENERGY      -213.587418444274
Dispersion correction           -0.001455937
FINAL SINGLE POINT ENERGY      -213.587425587943
Dispersion correction            ... Starting D4
Dispersion correction           -0.001456163
FINAL SINGLE POINT ENERGY      -213.587430366429
Dispersion correction            ... Starting D4
                    ***********************HURRAY********************

CARTESIAN COORDINATES (ANGSTROEM)
---------------------------------
  C     -1.644756    0.807942   -0.481267
  C     -1.359512   -0.508700    0.237505
  H     -2.707887    0.885742   -0.756375
  H     -1.069630    0.897303   -1.417620
  H     -1.397166    1.675244    0.152515
  C      0.032552   -0.643451    0.860035
  H     -1.519523   -1.345321   -0.466692
  H     -2.107273   -0.647373    1.037088
  C      1.214661   -0.549363   -0.105205
  H      0.078449   -1.619362    1.372700
  H      0.176328    0.127118    1.637860
  N      1.585847    0.826690   -0.404598
  H      0.989198   -1.165192   -1.004911
  H      2.088128   -1.023771    0.372013
  H      0.872245    1.285979   -0.963985
  H      2.441234    0.851782   -0.954180

 Multiplicity           Mult            ....    1
 Number of Electrons    NEL             ....   42
 Basis Dimension        Dim             ....  125

ORBITAL ENERGIES
----------------

  NO   OCC          E(Eh)            E(eV)
   0   2.0000     -14.374351      -391.1460
   1   2.0000     -10.284997      -279.8690
   2   2.0000     -10.264506      -279.3114
   3   2.0000     -10.263122      -279.2737
   4   2.0000     -10.257433      -279.1189
   5   2.0000      -0.995234       -27.0817
   6   2.0000      -0.904679       -24.6176
   7   2.0000      -0.827434       -22.5156
   8   2.0000      -0.741010       -20.1639
   9   2.0000      -0.676380       -18.4052
  10   2.0000      -0.603180       -16.4134
  11   2.0000      -0.579900       -15.7799
  12   2.0000      -0.539721       -14.6865
  13   2.0000      -0.535669       -14.5763
  14   2.0000      -0.498517       -13.5653
  15   2.0000      -0.488281       -13.2868
  16   2.0000      -0.474035       -12.8991
  17   2.0000      -0.431332       -11.7371
  18   2.0000      -0.421919       -11.4810
  19   2.0000      -0.412756       -11.2317
  20   2.0000      -0.331430        -9.0187
  21   0.0000       0.138272         3.7626
  22   0.0000       0.169671         4.6170
  23   0.0000       0.180362         4.9079
  24   0.0000       0.186370         5.0714
  25   0.0000       0.211804         5.7635

MULLIKEN ATOMIC CHARGES
-----------------------
   0 C :   -0.060511
   1 C :   -0.058866
   2 H :    0.030454
   3 H :    0.022120
   4 H :    0.035066
   5 C :   -0.044175
   6 H :    0.014066
   7 H :    0.022739
   8 C :    0.062621
   9 H :    0.017239
  10 H :    0.021616
  11 N :   -0.245616
  12 H :   -0.008503
  13 H :    0.014257
  14 H :    0.079844
  15 H :    0.097650
Sum of atomic charges:    0.0000000

LOEWDIN ATOMIC CHARGES
----------------------
   0 C :   -0.068171
   1 C :   -0.046553
   2 H :    0.027427
   3 H :    0.016445
   4 H :    0.026525
   5 C :   -0.050649
   6 H :    0.019555
   7 H :    0.024312
   8 C :    0.011508
   9 H :    0.025429
  10 H :    0.024100
  11 N :   -0.127267
  12 H :   -0.003091
  13 H :    0.020540
  14 H :    0.044819
  15 H :    0.055070

  Mayer bond orders larger than 0.100000
B(  0-C ,  1-C ) :   1.0777 B(  0-C ,  2-H ) :   0.9707 B(  0-C ,  3-H ) :   0.9680
B(  0-C ,  4-H ) :   0.9750 B(  1-C ,  5-C ) :   1.0807 B(  1-C ,  6-H ) :   0.9549
B(  1-C ,  7-H ) :   0.9572 B(  5-C ,  8-C ) :   1.0602 B(  5-C ,  9-H ) :   0.9515
B(  5-C , 10-H ) :   0.9462 B(  8-C , 11-N ) :   1.0705 B(  8-C , 12-H ) :   0.9486
B(  8-C , 13-H ) :   0.9554 B( 11-N , 14-H ) :   0.9774 B( 11-N , 15-H ) :   0.9695

Dispersion correction           -0.001456106
FINAL SINGLE POINT ENERGY      -213.587431576371

DIPOLE MOMENT
-------------
                                X             Y             Z
Electronic contribution:      1.80493      -0.01217       0.42544
Nuclear contribution   :     -1.86364      -0.17695      -0.85793
                        -----------------------------------------
Total Dipole Moment    :     -0.05871      -0.18912      -0.43250
                        -----------------------------------------
Magnitude (a.u.)       :      0.47567
Magnitude (Debye)      :      1.20907

Dispersion correction in the Hessian             ... Starting D4

VIBRATIONAL FREQUENCIES
-----------------------

Scaling factor for frequencies =  1.000000000  (already applied!)

   0:         0.00 cm**-1
   1:         0.00 cm**-1
   2:         0.00 cm**-1
   3:         0.00 cm**-1
   4:         0.00 cm**-1
   5:         0.00 cm**-1
   6:        67.33 cm**-1
   7:       136.89 cm**-1
   8:       222.85 cm**-1
   9:       291.69 cm**-1
  10:       315.78 cm**-1
  11:       389.75 cm**-1
  12:       484.70 cm**-1
  13:       769.03 cm**-1
  14:       803.25 cm**-1
  15:       833.42 cm**-1
  16:       878.53 cm**-1
  17:       948.61 cm**-1
  18:       981.14 cm**-1
  19:      1061.50 cm**-1
  20:      1100.66 cm**-1
  21:      1157.90 cm**-1
  22:      1160.98 cm**-1
  23:      1202.63 cm**-1
  24:      1255.06 cm**-1
  25:      1312.84 cm**-1
  26:      1348.54 cm**-1
  27:      1370.14 cm**-1
  28:      1394.28 cm**-1
  29:      1419.84 cm**-1
  30:      1446.72 cm**-1
  31:      1455.46 cm**-1
  32:      1470.61 cm**-1
  33:      1478.91 cm**-1
  34:      1493.46 cm**-1
  35:      1496.95 cm**-1
  36:      1646.67 cm**-1
  37:      2969.14 cm**-1
  38:      3056.77 cm**-1
  39:      3059.69 cm**-1
  40:      3066.40 cm**-1
  41:      3104.28 cm**-1
  42:      3110.44 cm**-1
  43:      3125.77 cm**-1
  44:      3151.22 cm**-1
  45:      3159.74 cm**-1
  46:      3577.89 cm**-1
  47:      3661.00 cm**-1

IR SPECTRUM
-----------

 Mode   freq       eps      Int      T**2         TX        TY        TZ
       cm**-1   L/(mol*cm) km/mol    a.u.
----------------------------------------------------------------------------
  6:     67.33   0.002025   10.24  0.009388  (-0.087423  0.039051 -0.014832)
  7:    136.89   0.001329    6.72  0.003031  (-0.054987  0.002653  0.000356)
  8:    222.85   0.007578   38.29  0.010611  ( 0.102567 -0.009188 -0.002627)
  9:    291.69   0.000113    0.57  0.000121  ( 0.010939  0.000573  0.000747)
 10:    315.78   0.000020    0.10  0.000019  (-0.004079 -0.001313 -0.001053)
 11:    389.75   0.001838    9.29  0.001472  (-0.036334 -0.011913  0.003125)
 12:    484.70   0.000519    2.62  0.000334  ( 0.011520  0.013780  0.003393)
 13:    769.03   0.002417   12.21  0.000981  ( 0.020632  0.023323  0.003327)
 14:    803.25   0.004136   20.90  0.001607  (-0.009290 -0.032492 -0.021561)
 15:    833.42   0.019528   98.69  0.007312  (-0.026383 -0.069522 -0.042222)
 16:    878.53   0.000170    0.86  0.000060  ( 0.007418 -0.002133  0.000901)
 17:    948.61   0.000272    1.37  0.000089  (-0.005453  0.005654  0.005267)
 18:    981.14   0.001662    8.40  0.000529  ( 0.008235  0.020064  0.007630)
 19:   1061.50   0.000565    2.86  0.000166  ( 0.005330 -0.009353  0.007087)
 20:   1100.66   0.000544    2.75  0.000154  (-0.006010 -0.008478  0.006808)
 21:   1157.90   0.002121   10.72  0.000572  (-0.007089 -0.020942 -0.009105)
 22:   1160.98   0.000596    3.01  0.000160  ( 0.003682  0.006168 -0.010424)
 23:   1202.63   0.000451    2.28  0.000117  (-0.004003 -0.009864 -0.001916)
 24:   1255.06   0.000174    0.88  0.000043  ( 0.005325 -0.000277 -0.003836)
 25:   1312.84   0.000130    0.66  0.000031  (-0.002546 -0.002093  0.004481)
 26:   1348.54   0.001558    7.88  0.000361  (-0.002209  0.016292 -0.009503)
 27:   1370.14   0.000435    2.20  0.000099  (-0.009060 -0.004119  0.000123)
 28:   1394.28   0.000183    0.93  0.000041  ( 0.005702  0.001008  0.002744)
 29:   1419.84   0.000922    4.66  0.000203  (-0.008606  0.010597 -0.004037)
 30:   1446.72   0.001905    9.63  0.000411  ( 0.007174  0.017366 -0.007613)
 31:   1455.46   0.000985    4.98  0.000211  (-0.002618  0.002368 -0.014094)
 32:   1470.61   0.000697    3.52  0.000148  (-0.004103 -0.011395 -0.001062)
 33:   1478.91   0.001907    9.64  0.000402  (-0.011646  0.001793  0.016235)
 34:   1493.46   0.001367    6.91  0.000286  ( 0.011528  0.007632  0.009725)
 35:   1496.95   0.001085    5.48  0.000226  (-0.013844 -0.003856  0.004426)
 36:   1646.67   0.006325   31.96  0.001199  (-0.012484 -0.018321  0.026593)
 37:   2969.14   0.015869   80.20  0.001668  (-0.000955 -0.031661 -0.025779)
 38:   3056.77   0.006903   34.89  0.000705  (-0.011454 -0.023895  0.001599)
 39:   3059.69   0.003605   18.22  0.000368  ( 0.009385 -0.005942  0.015631)
 40:   3066.40   0.003069   15.51  0.000312  (-0.004923 -0.009011  0.014384)
 41:   3104.28   0.006990   35.32  0.000703  ( 0.023725 -0.006674  0.009759)
 42:   3110.44   0.004708   23.79  0.000472  (-0.000133 -0.003660  0.021422)
 43:   3125.77   0.006018   30.41  0.000601  ( 0.001383 -0.024180 -0.003779)
 44:   3151.22   0.008069   40.78  0.000799  ( 0.018866 -0.007317 -0.019739)
 45:   3159.74   0.004567   23.08  0.000451  ( 0.016722  0.007723  0.010574)
 46:   3577.89   0.000166    0.84  0.000014  ( 0.002602  0.000837  0.002651)
 47:   3661.00   0.001025    5.18  0.000087  ( 0.009178 -0.001691 -0.000553)

--------------------------
THERMOCHEMISTRY AT 298.15K
--------------------------

Temperature         ... 298.15 K
Pressure            ... 1.00 atm
Total Mass          ... 73.14 AMU

Throughout the following assumptions are being made:
  (1) The electronic state is orbitally nondegenerate
  (2) There are no thermally accessible electronically excited states
  (3) Hindered rotations indicated by low frequency modes are not
      treated as such but are treated as vibrations and this may
      cause some error
  (4) All equations used are the standard statistical mechanics
      equations for an ideal gas
  (5) All vibrations are strictly harmonic

freq.      67.33  E(vib)   ...       0.50
freq.     136.89  E(vib)   ...       0.42
freq.     222.85  E(vib)   ...       0.33
freq.     291.69  E(vib)   ...       0.27
freq.     315.78  E(vib)   ...       0.25
freq.     389.75  E(vib)   ...       0.20
freq.     484.70  E(vib)   ...       0.15
freq.     769.03  E(vib)   ...       0.06
freq.     803.25  E(vib)   ...       0.05
freq.     833.42  E(vib)   ...       0.04
freq.     878.53  E(vib)   ...       0.04
freq.     948.61  E(vib)   ...       0.03
freq.     981.14  E(vib)   ...       0.02
freq.    1061.50  E(vib)   ...       0.02
freq.    1100.66  E(vib)   ...       0.02
freq.    1157.90  E(vib)   ...       0.01
freq.    1160.98  E(vib)   ...       0.01
freq.    1202.63  E(vib)   ...       0.01
freq.    1255.06  E(vib)   ...       0.01
freq.    1312.84  E(vib)   ...       0.01
freq.    1348.54  E(vib)   ...       0.01
freq.    1370.14  E(vib)   ...       0.01
freq.    1394.28  E(vib)   ...       0.00
freq.    1419.84  E(vib)   ...       0.00
freq.    1446.72  E(vib)   ...       0.00
freq.    1455.46  E(vib)   ...       0.00
freq.    1470.61  E(vib)   ...       0.00
freq.    1478.91  E(vib)   ...       0.00
freq.    1493.46  E(vib)   ...       0.00
freq.    1496.95  E(vib)   ...       0.00
freq.    1646.67  E(vib)   ...       0.00
freq.    2969.14  E(vib)   ...       0.00
freq.    3056.77  E(vib)   ...       0.00
freq.    3059.69  E(vib)   ...       0.00
freq.    3066.40  E(vib)   ...       0.00
freq.    3104.28  E(vib)   ...       0.00
freq.    3110.44  E(vib)   ...       0.00
freq.    3125.77  E(vib)   ...       0.00
freq.    3151.22  E(vib)   ...       0.00
freq.    3159.74  E(vib)   ...       0.00
freq.    3577.89  E(vib)   ...       0.00
freq.    3661.00  E(vib)   ...       0.00

------------
INNER ENERGY
------------

The inner energy is: U= E(el) + E(ZPE) + E(vib) + E(rot) + E(trans)
    E(el)   - is the total energy from the electronic structure calculation
              = E(kin-el) + E(nuc-el) + E(el-el) + E(nuc-nuc)
    E(ZPE)  - the the zero temperature vibrational energy from the frequency calculation
    E(vib)  - the the finite temperature correction to E(ZPE) due to population
              of excited vibrational states
    E(rot)  - is the rotational thermal energy
    E(trans)- is the translational thermal energy

Summary of contributions to the inner energy U:
Electronic energy                ...   -213.58743158 Eh
Zero point energy                ...      0.15135794 Eh      94.98 kcal/mol
Thermal vibrational correction   ...      0.00395735 Eh       2.48 kcal/mol
Thermal rotational correction    ...      0.00141627 Eh       0.89 kcal/mol
Thermal translational correction ...      0.00141627 Eh       0.89 kcal/mol
-----------------------------------------------------------------------
Total thermal energy                   -213.42928375 Eh

Summary of corrections to the electronic energy:
(perhaps to be used in another calculation)
Total thermal correction                  0.00678989 Eh       4.26 kcal/mol
Non-thermal (ZPE) correction              0.15135794 Eh      94.98 kcal/mol
-----------------------------------------------------------------------
Total correction                          0.15814783 Eh      99.24 kcal/mol

--------
ENTHALPY
--------

The enthalpy is H = U + kB*T
                kB is Boltzmann's constant
Total free energy                 ...   -213.42928375 Eh
Thermal Enthalpy correction       ...      0.00094421 Eh       0.59 kcal/mol
-----------------------------------------------------------------------
Total Enthalpy                    ...   -213.42833954 Eh

Note: Only C1 symmetry has been detected, increase convergence thresholds
      if your molecule has a higher symmetry. Symmetry factor of 1.0 is
      used for the rotational entropy correction.

Note: Rotational entropy computed according to Herzberg
Infrared and Raman Spectra, Chapter V,1, Van Nostrand Reinhold, 1945
Point Group:  C1, Symmetry Number:   1
Rotational constants in cm-1:     0.243331     0.113389     0.086225

Vibrational entropy computed according to the QRRHO of S. Grimme
Chem.Eur.J. 2012 18 9955

-------
ENTROPY
-------

The entropy contributions are T*S = T*(S(el)+S(vib)+S(rot)+S(trans))
     S(el)   - electronic entropy
     S(vib)  - vibrational entropy
     S(rot)  - rotational entropy
     S(trans)- translational entropy
The entropies will be listed as multiplied by the temperature to get
units of energy

Electronic entropy                ...      0.00000000 Eh      0.00 kcal/mol
Vibrational entropy               ...      0.00671229 Eh      4.21 kcal/mol
Rotational entropy                ...      0.01236273 Eh      7.76 kcal/mol
Translational entropy             ...      0.01842822 Eh     11.56 kcal/mol
-----------------------------------------------------------------------
Final entropy term                ...      0.03750324 Eh     23.53 kcal/mol

In case the symmetry of your molecule has not been determined correctly
or in case you have a reason to use a different symmetry number we print
out the resulting rotational entropy values for sn=1,12 :
 --------------------------------------------------------
|  sn= 1 | S(rot)=       0.01236273 Eh      7.76 kcal/mol|
|  sn= 2 | S(rot)=       0.01170828 Eh      7.35 kcal/mol|
|  sn= 3 | S(rot)=       0.01132545 Eh      7.11 kcal/mol|
|  sn= 4 | S(rot)=       0.01105382 Eh      6.94 kcal/mol|
|  sn= 5 | S(rot)=       0.01084313 Eh      6.80 kcal/mol|
|  sn= 6 | S(rot)=       0.01067099 Eh      6.70 kcal/mol|
|  sn= 7 | S(rot)=       0.01052544 Eh      6.60 kcal/mol|
|  sn= 8 | S(rot)=       0.01039937 Eh      6.53 kcal/mol|
|  sn= 9 | S(rot)=       0.01028816 Eh      6.46 kcal/mol|
|  sn=10 | S(rot)=       0.01018868 Eh      6.39 kcal/mol|
|  sn=11 | S(rot)=       0.01009869 Eh      6.34 kcal/mol|
|  sn=12 | S(rot)=       0.01001653 Eh      6.29 kcal/mol|
 --------------------------------------------------------

-------------------
GIBBS FREE ENERGY
-------------------

The Gibbs free energy is G = H - T*S

                             ****ORCA TERMINATED NORMALLY****
TOTAL RUN TIME: 0 days 0 hours 5 minutes 21 seconds 771 msec
