                         Program Version 5.0.4 -  RELEASE  -
|  1> # ORCA 5.0.4 - /users/bwb16179/postgrad/2024_06/pKa_Reviewer_Comments/CREST_Confs/butylamine/butylamine_deprot_aq_3.inp # write input file
|  2> # Basic Mode
|  3> #
|  4> ! Opt Freq wB97X Def2-SVP D4 SlowConv TightSCF Defgrid2 Def2/J RIJCOSX
|  5>
|  6> %PAL NPROCS 4 END
|  7>
|  8> %maxcore 4500
|  9>
| 10> %geom
| 11> Maxiter 150
| 12> END
| 13>
| 14> * xyzfile 0 1 butylamine_deprot_aq_3.xyz
| 15>
| 16>                          ****END OF INPUT****
 Total Charge           Charge          ....    0
 Multiplicity           Mult            ....    1
 Number of Electrons    NEL             ....   42
Dispersion correction           -0.001444080
FINAL SINGLE POINT ENERGY      -213.588715509498
Dispersion correction            ... Starting D4
Dispersion correction           -0.001444494
FINAL SINGLE POINT ENERGY      -213.589979710761
Dispersion correction            ... Starting D4
Dispersion correction           -0.001446554
FINAL SINGLE POINT ENERGY      -213.590178251510
Dispersion correction            ... Starting D4
FINAL SINGLE POINT ENERGY      -213.590271890342
Dispersion correction           -0.001451790
FINAL SINGLE POINT ENERGY      -213.590283840603
Dispersion correction            ... Starting D4
Dispersion correction           -0.001453336
FINAL SINGLE POINT ENERGY      -213.590288450912
Dispersion correction            ... Starting D4
                    ***********************HURRAY********************

CARTESIAN COORDINATES (ANGSTROEM)
---------------------------------
  C     -1.870225    0.756166   -0.084276
  C     -1.121549   -0.407029    0.558414
  H     -1.207852    1.614343   -0.281665
  H     -2.685672    1.114924    0.561997
  H     -2.314326    0.457928   -1.048020
  C     -0.020292   -1.002070   -0.319722
  H     -1.838301   -1.203072    0.820038
  H     -0.682564   -0.078785    1.517423
  C      1.109915   -0.029573   -0.678858
  H     -0.464212   -1.393021   -1.253393
  H      0.417558   -1.875834    0.196644
  N      1.809211    0.581506    0.437600
  H      0.720044    0.780191   -1.319327
  H      1.848563   -0.561541   -1.302324
  H      2.152280   -0.129881    1.080723
  H      1.187128    1.181094    0.975180

 Multiplicity           Mult            ....    1
 Number of Electrons    NEL             ....   42
 Basis Dimension        Dim             ....  125

ORBITAL ENERGIES
----------------

  NO   OCC          E(Eh)            E(eV)
   0   2.0000     -14.376828      -391.2134
   1   2.0000     -10.284848      -279.8650
   2   2.0000     -10.267717      -279.3988
   3   2.0000     -10.263775      -279.2915
   4   2.0000     -10.261767      -279.2369
   5   2.0000      -0.998469       -27.1697
   6   2.0000      -0.907542       -24.6955
   7   2.0000      -0.823944       -22.4207
   8   2.0000      -0.751456       -20.4481
   9   2.0000      -0.677281       -18.4298
  10   2.0000      -0.608055       -16.5460
  11   2.0000      -0.573665       -15.6102
  12   2.0000      -0.548329       -14.9208
  13   2.0000      -0.539047       -14.6682
  14   2.0000      -0.500870       -13.6294
  15   2.0000      -0.486953       -13.2507
  16   2.0000      -0.471871       -12.8403
  17   2.0000      -0.434008       -11.8100
  18   2.0000      -0.429289       -11.6815
  19   2.0000      -0.421089       -11.4584
  20   2.0000      -0.331912        -9.0318
  21   0.0000       0.131813         3.5868
  22   0.0000       0.169039         4.5998
  23   0.0000       0.170260         4.6330
  24   0.0000       0.188103         5.1185
  25   0.0000       0.210133         5.7180

MULLIKEN ATOMIC CHARGES
-----------------------
   0 C :   -0.051316
   1 C :   -0.062887
   2 H :    0.024241
   3 H :    0.032145
   4 H :    0.025876
   5 C :   -0.046067
   6 H :    0.023476
   7 H :   -0.001200
   8 C :    0.053831
   9 H :    0.011808
  10 H :    0.010559
  11 N :   -0.250663
  12 H :    0.019329
  13 H :    0.022114
  14 H :    0.093809
  15 H :    0.094945
Sum of atomic charges:   -0.0000000

LOEWDIN ATOMIC CHARGES
----------------------
   0 C :   -0.066603
   1 C :   -0.050764
   2 H :    0.020418
   3 H :    0.027343
   4 H :    0.024965
   5 C :   -0.061771
   6 H :    0.024753
   7 H :    0.011806
   8 C :    0.007078
   9 H :    0.022167
  10 H :    0.018406
  11 N :   -0.116396
  12 H :    0.017635
  13 H :    0.020844
  14 H :    0.051432
  15 H :    0.048686

  Mayer bond orders larger than 0.100000
B(  0-C ,  1-C ) :   1.0746 B(  0-C ,  2-H ) :   0.9748 B(  0-C ,  3-H ) :   0.9735
B(  0-C ,  4-H ) :   0.9753 B(  1-C ,  5-C ) :   1.0634 B(  1-C ,  6-H ) :   0.9564
B(  1-C ,  7-H ) :   0.9498 B(  5-C ,  8-C ) :   1.0419 B(  5-C ,  9-H ) :   0.9430
B(  5-C , 10-H ) :   0.9496 B(  8-C , 11-N ) :   1.0853 B(  8-C , 12-H ) :   0.9604
B(  8-C , 13-H ) :   0.9598 B( 11-N , 14-H ) :   0.9797 B( 11-N , 15-H ) :   0.9823

Dispersion correction           -0.001453613
FINAL SINGLE POINT ENERGY      -213.590289443349

DIPOLE MOMENT
-------------
                                X             Y             Z
Electronic contribution:      2.23366      -0.20086       0.24691
Nuclear contribution   :     -2.62430      -0.06393      -0.01561
                        -----------------------------------------
Total Dipole Moment    :     -0.39064      -0.26479       0.23130
                        -----------------------------------------
Magnitude (a.u.)       :      0.52556
Magnitude (Debye)      :      1.33587

Dispersion correction in the Hessian             ... Starting D4

VIBRATIONAL FREQUENCIES
-----------------------

Scaling factor for frequencies =  1.000000000  (already applied!)

   0:         0.00 cm**-1
   1:         0.00 cm**-1
   2:         0.00 cm**-1
   3:         0.00 cm**-1
   4:         0.00 cm**-1
   5:         0.00 cm**-1
   6:        58.47 cm**-1
   7:       155.16 cm**-1
   8:       241.60 cm**-1
   9:       272.48 cm**-1
  10:       308.77 cm**-1
  11:       396.55 cm**-1
  12:       507.15 cm**-1
  13:       727.15 cm**-1
  14:       798.26 cm**-1
  15:       859.44 cm**-1
  16:       865.62 cm**-1
  17:       931.84 cm**-1
  18:       969.96 cm**-1
  19:      1051.92 cm**-1
  20:      1061.74 cm**-1
  21:      1131.42 cm**-1
  22:      1171.51 cm**-1
  23:      1194.99 cm**-1
  24:      1261.83 cm**-1
  25:      1311.02 cm**-1
  26:      1358.32 cm**-1
  27:      1372.82 cm**-1
  28:      1398.34 cm**-1
  29:      1405.02 cm**-1
  30:      1418.93 cm**-1
  31:      1456.37 cm**-1
  32:      1471.12 cm**-1
  33:      1471.53 cm**-1
  34:      1479.01 cm**-1
  35:      1487.01 cm**-1
  36:      1645.10 cm**-1
  37:      3050.23 cm**-1
  38:      3061.47 cm**-1
  39:      3066.74 cm**-1
  40:      3072.10 cm**-1
  41:      3103.80 cm**-1
  42:      3117.90 cm**-1
  43:      3124.10 cm**-1
  44:      3154.90 cm**-1
  45:      3163.29 cm**-1
  46:      3558.30 cm**-1
  47:      3642.90 cm**-1

IR SPECTRUM
-----------

 Mode   freq       eps      Int      T**2         TX        TY        TZ
       cm**-1   L/(mol*cm) km/mol    a.u.
----------------------------------------------------------------------------
  6:     58.47   0.000018    0.09  0.000099  (-0.007675  0.006180 -0.001231)
  7:    155.16   0.000374    1.89  0.000751  ( 0.011948 -0.022224  0.010706)
  8:    241.60   0.002045   10.34  0.002642  (-0.028410  0.042833  0.000475)
  9:    272.48   0.000208    1.05  0.000238  ( 0.008582 -0.003186  0.012419)
 10:    308.77   0.006582   33.27  0.006653  (-0.042947  0.069316 -0.001890)
 11:    396.55   0.000706    3.57  0.000556  ( 0.021388  0.001014  0.009860)
 12:    507.15   0.002040   10.31  0.001255  ( 0.020203  0.023383  0.017337)
 13:    727.15   0.002921   14.76  0.001254  (-0.033155 -0.012017 -0.003174)
 14:    798.26   0.010800   54.58  0.004222  (-0.054523 -0.031452 -0.016125)
 15:    859.44   0.015625   78.96  0.005673  (-0.064412 -0.038812 -0.004254)
 16:    865.62   0.013498   68.22  0.004866  (-0.056188 -0.039355 -0.012662)
 17:    931.84   0.000405    2.05  0.000136  (-0.006971 -0.008957  0.002601)
 18:    969.96   0.001728    8.73  0.000556  (-0.015981 -0.016936 -0.003693)
 19:   1051.92   0.000615    3.11  0.000183  ( 0.005602  0.008843  0.008539)
 20:   1061.74   0.001145    5.78  0.000336  ( 0.013676  0.012200  0.000714)
 21:   1131.42   0.001584    8.01  0.000437  ( 0.016745  0.012495 -0.000651)
 22:   1171.51   0.001794    9.06  0.000478  (-0.004265 -0.006618 -0.020391)
 23:   1194.99   0.000614    3.10  0.000160  (-0.011704  0.001368  0.004643)
 24:   1261.83   0.000290    1.46  0.000072  ( 0.005405  0.003420 -0.005548)
 25:   1311.02   0.000143    0.72  0.000034  ( 0.001858 -0.005535 -0.000169)
 26:   1358.32   0.000981    4.96  0.000225  (-0.013989 -0.003607 -0.004073)
 27:   1372.82   0.000164    0.83  0.000037  ( 0.005911  0.000817 -0.001309)
 28:   1398.34   0.002479   12.53  0.000553  ( 0.016940  0.008305  0.014044)
 29:   1405.02   0.000316    1.60  0.000070  ( 0.001851  0.008016  0.001614)
 30:   1418.93   0.001097    5.54  0.000241  (-0.006101  0.013974 -0.002947)
 31:   1456.37   0.000427    2.16  0.000091  ( 0.002552 -0.009108 -0.001423)
 32:   1471.12   0.000970    4.90  0.000206  (-0.001745  0.007847  0.011881)
 33:   1471.53   0.000749    3.78  0.000159  ( 0.001360 -0.004528 -0.011680)
 34:   1479.01   0.002335   11.80  0.000493  (-0.015204 -0.014566  0.007030)
 35:   1487.01   0.000767    3.88  0.000161  (-0.006128  0.005277  0.009774)
 36:   1645.10   0.003525   17.81  0.000669  ( 0.000437 -0.002513 -0.025731)
 37:   3050.23   0.005131   25.93  0.000525  (-0.001967  0.021873  0.006528)
 38:   3061.47   0.004119   20.81  0.000420  ( 0.010536 -0.015575  0.008138)
 39:   3066.74   0.008183   41.35  0.000833  (-0.006718 -0.006755  0.027238)
 40:   3072.10   0.003010   15.21  0.000306  ( 0.004935 -0.001377 -0.016720)
 41:   3103.80   0.006619   33.45  0.000666  (-0.004192  0.004663 -0.025024)
 42:   3117.90   0.004184   21.14  0.000419  ( 0.009293  0.016161  0.008440)
 43:   3124.10   0.008830   44.62  0.000882  (-0.023034  0.017434 -0.006894)
 44:   3154.90   0.006769   34.21  0.000670  ( 0.015766  0.017531  0.010661)
 45:   3163.29   0.004705   23.78  0.000464  ( 0.014464 -0.000407 -0.015963)
 46:   3558.30   0.000021    0.11  0.000002  ( 0.000153  0.000669 -0.001163)
 47:   3642.90   0.000325    1.64  0.000028  (-0.002683  0.004533 -0.000295)

--------------------------
THERMOCHEMISTRY AT 298.15K
--------------------------

Temperature         ... 298.15 K
Pressure            ... 1.00 atm
Total Mass          ... 73.14 AMU

Throughout the following assumptions are being made:
  (1) The electronic state is orbitally nondegenerate
  (2) There are no thermally accessible electronically excited states
  (3) Hindered rotations indicated by low frequency modes are not
      treated as such but are treated as vibrations and this may
      cause some error
  (4) All equations used are the standard statistical mechanics
      equations for an ideal gas
  (5) All vibrations are strictly harmonic

freq.      58.47  E(vib)   ...       0.51
freq.     155.16  E(vib)   ...       0.40
freq.     241.60  E(vib)   ...       0.31
freq.     272.48  E(vib)   ...       0.29
freq.     308.77  E(vib)   ...       0.26
freq.     396.55  E(vib)   ...       0.20
freq.     507.15  E(vib)   ...       0.14
freq.     727.15  E(vib)   ...       0.06
freq.     798.26  E(vib)   ...       0.05
freq.     859.44  E(vib)   ...       0.04
freq.     865.62  E(vib)   ...       0.04
freq.     931.84  E(vib)   ...       0.03
freq.     969.96  E(vib)   ...       0.03
freq.    1051.92  E(vib)   ...       0.02
freq.    1061.74  E(vib)   ...       0.02
freq.    1131.42  E(vib)   ...       0.01
freq.    1171.51  E(vib)   ...       0.01
freq.    1194.99  E(vib)   ...       0.01
freq.    1261.83  E(vib)   ...       0.01
freq.    1311.02  E(vib)   ...       0.01
freq.    1358.32  E(vib)   ...       0.01
freq.    1372.82  E(vib)   ...       0.01
freq.    1398.34  E(vib)   ...       0.00
freq.    1405.02  E(vib)   ...       0.00
freq.    1418.93  E(vib)   ...       0.00
freq.    1456.37  E(vib)   ...       0.00
freq.    1471.12  E(vib)   ...       0.00
freq.    1471.53  E(vib)   ...       0.00
freq.    1479.01  E(vib)   ...       0.00
freq.    1487.01  E(vib)   ...       0.00
freq.    1645.10  E(vib)   ...       0.00
freq.    3050.23  E(vib)   ...       0.00
freq.    3061.47  E(vib)   ...       0.00
freq.    3066.74  E(vib)   ...       0.00
freq.    3072.10  E(vib)   ...       0.00
freq.    3103.80  E(vib)   ...       0.00
freq.    3117.90  E(vib)   ...       0.00
freq.    3124.10  E(vib)   ...       0.00
freq.    3154.90  E(vib)   ...       0.00
freq.    3163.29  E(vib)   ...       0.00
freq.    3558.30  E(vib)   ...       0.00
freq.    3642.90  E(vib)   ...       0.00

------------
INNER ENERGY
------------

The inner energy is: U= E(el) + E(ZPE) + E(vib) + E(rot) + E(trans)
    E(el)   - is the total energy from the electronic structure calculation
              = E(kin-el) + E(nuc-el) + E(el-el) + E(nuc-nuc)
    E(ZPE)  - the the zero temperature vibrational energy from the frequency calculation
    E(vib)  - the the finite temperature correction to E(ZPE) due to population
              of excited vibrational states
    E(rot)  - is the rotational thermal energy
    E(trans)- is the translational thermal energy

Summary of contributions to the inner energy U:
Electronic energy                ...   -213.59028944 Eh
Zero point energy                ...      0.15117047 Eh      94.86 kcal/mol
Thermal vibrational correction   ...      0.00395129 Eh       2.48 kcal/mol
Thermal rotational correction    ...      0.00141627 Eh       0.89 kcal/mol
Thermal translational correction ...      0.00141627 Eh       0.89 kcal/mol
-----------------------------------------------------------------------
Total thermal energy                   -213.43233514 Eh

Summary of corrections to the electronic energy:
(perhaps to be used in another calculation)
Total thermal correction                  0.00678384 Eh       4.26 kcal/mol
Non-thermal (ZPE) correction              0.15117047 Eh      94.86 kcal/mol
-----------------------------------------------------------------------
Total correction                          0.15795430 Eh      99.12 kcal/mol

--------
ENTHALPY
--------

The enthalpy is H = U + kB*T
                kB is Boltzmann's constant
Total free energy                 ...   -213.43233514 Eh
Thermal Enthalpy correction       ...      0.00094421 Eh       0.59 kcal/mol
-----------------------------------------------------------------------
Total Enthalpy                    ...   -213.43139093 Eh

Note: Only C1 symmetry has been detected, increase convergence thresholds
      if your molecule has a higher symmetry. Symmetry factor of 1.0 is
      used for the rotational entropy correction.

Note: Rotational entropy computed according to Herzberg
Infrared and Raman Spectra, Chapter V,1, Van Nostrand Reinhold, 1945
Point Group:  C1, Symmetry Number:   1
Rotational constants in cm-1:     0.263617     0.099309     0.090181

Vibrational entropy computed according to the QRRHO of S. Grimme
Chem.Eur.J. 2012 18 9955

-------
ENTROPY
-------

The entropy contributions are T*S = T*(S(el)+S(vib)+S(rot)+S(trans))
     S(el)   - electronic entropy
     S(vib)  - vibrational entropy
     S(rot)  - rotational entropy
     S(trans)- translational entropy
The entropies will be listed as multiplied by the temperature to get
units of energy

Electronic entropy                ...      0.00000000 Eh      0.00 kcal/mol
Vibrational entropy               ...      0.00665852 Eh      4.18 kcal/mol
Rotational entropy                ...      0.01236635 Eh      7.76 kcal/mol
Translational entropy             ...      0.01842822 Eh     11.56 kcal/mol
-----------------------------------------------------------------------
Final entropy term                ...      0.03745309 Eh     23.50 kcal/mol

In case the symmetry of your molecule has not been determined correctly
or in case you have a reason to use a different symmetry number we print
out the resulting rotational entropy values for sn=1,12 :
 --------------------------------------------------------
|  sn= 1 | S(rot)=       0.01236635 Eh      7.76 kcal/mol|
|  sn= 2 | S(rot)=       0.01171190 Eh      7.35 kcal/mol|
|  sn= 3 | S(rot)=       0.01132906 Eh      7.11 kcal/mol|
|  sn= 4 | S(rot)=       0.01105744 Eh      6.94 kcal/mol|
|  sn= 5 | S(rot)=       0.01084675 Eh      6.81 kcal/mol|
|  sn= 6 | S(rot)=       0.01067461 Eh      6.70 kcal/mol|
|  sn= 7 | S(rot)=       0.01052906 Eh      6.61 kcal/mol|
|  sn= 8 | S(rot)=       0.01040298 Eh      6.53 kcal/mol|
|  sn= 9 | S(rot)=       0.01029178 Eh      6.46 kcal/mol|
|  sn=10 | S(rot)=       0.01019230 Eh      6.40 kcal/mol|
|  sn=11 | S(rot)=       0.01010231 Eh      6.34 kcal/mol|
|  sn=12 | S(rot)=       0.01002015 Eh      6.29 kcal/mol|
 --------------------------------------------------------

-------------------
GIBBS FREE ENERGY
-------------------

The Gibbs free energy is G = H - T*S

                             ****ORCA TERMINATED NORMALLY****
TOTAL RUN TIME: 0 days 0 hours 3 minutes 54 seconds 723 msec
