                         Program Version 5.0.4 -  RELEASE  -
|  1> # ORCA 5.0.4 - /users/bwb16179/postgrad/2024_06/pKa_Reviewer_Comments/CREST_Confs/butylamine/butylamine_deprot_aq_21.inp # write input file
|  2> # Basic Mode
|  3> #
|  4> ! Opt Freq wB97X Def2-SVP D4 SlowConv TightSCF Defgrid2 Def2/J RIJCOSX
|  5>
|  6> %PAL NPROCS 4 END
|  7>
|  8> %maxcore 4500
|  9>
| 10> %geom
| 11> Maxiter 150
| 12> END
| 13>
| 14> * xyzfile 0 1 butylamine_deprot_aq_21.xyz
| 15>
| 16>                          ****END OF INPUT****
 Total Charge           Charge          ....    0
 Multiplicity           Mult            ....    1
 Number of Electrons    NEL             ....   42
Dispersion correction           -0.001444514
FINAL SINGLE POINT ENERGY      -213.584989975803
Dispersion correction            ... Starting D4
Dispersion correction           -0.001445928
FINAL SINGLE POINT ENERGY      -213.586411257734
Dispersion correction            ... Starting D4
Dispersion correction           -0.001446698
FINAL SINGLE POINT ENERGY      -213.586789333419
Dispersion correction            ... Starting D4
FINAL SINGLE POINT ENERGY      -213.587143122036
FINAL SINGLE POINT ENERGY      -213.587345376151
FINAL SINGLE POINT ENERGY      -213.587472998165
FINAL SINGLE POINT ENERGY      -213.587611254675
FINAL SINGLE POINT ENERGY      -213.587674253672
FINAL SINGLE POINT ENERGY      -213.587698974256
Dispersion correction           -0.001450923
FINAL SINGLE POINT ENERGY      -213.587711309662
Dispersion correction            ... Starting D4
Dispersion correction           -0.001451108
FINAL SINGLE POINT ENERGY      -213.587715134063
Dispersion correction            ... Starting D4
                    ***********************HURRAY********************

CARTESIAN COORDINATES (ANGSTROEM)
---------------------------------
  C     -1.742461    0.881165   -0.324340
  C     -1.260858   -0.533272   -0.005236
  H     -0.942175    1.495393   -0.761470
  H     -2.068686    1.393911    0.595064
  H     -2.597258    0.870284   -1.018699
  C     -0.009615   -0.586149    0.881972
  H     -1.065898   -1.089713   -0.941708
  H     -2.081259   -1.079802    0.489441
  C      1.317630   -0.531834    0.129623
  H     -0.015476   -1.519708    1.469981
  H     -0.041897    0.243972    1.609317
  N      1.483413    0.685683   -0.652623
  H      1.410692   -1.458387   -0.478298
  H      2.134973   -0.572033    0.868824
  H      0.926437    0.640295   -1.503914
  H      2.448869    0.779928   -0.958315

 Multiplicity           Mult            ....    1
 Number of Electrons    NEL             ....   42
 Basis Dimension        Dim             ....  125

ORBITAL ENERGIES
----------------

  NO   OCC          E(Eh)            E(eV)
   0   2.0000     -14.379344      -391.2818
   1   2.0000     -10.286672      -279.9146
   2   2.0000     -10.262427      -279.2548
   3   2.0000     -10.257379      -279.1175
   4   2.0000     -10.253031      -278.9992
   5   2.0000      -0.998895       -27.1813
   6   2.0000      -0.901698       -24.5364
   7   2.0000      -0.825344       -22.4588
   8   2.0000      -0.735784       -20.0217
   9   2.0000      -0.675774       -18.3888
  10   2.0000      -0.608583       -16.5604
  11   2.0000      -0.578039       -15.7292
  12   2.0000      -0.538756       -14.6603
  13   2.0000      -0.527483       -14.3535
  14   2.0000      -0.505104       -13.7446
  15   2.0000      -0.477700       -12.9989
  16   2.0000      -0.468697       -12.7539
  17   2.0000      -0.429882       -11.6977
  18   2.0000      -0.422194       -11.4885
  19   2.0000      -0.412055       -11.2126
  20   2.0000      -0.334621        -9.1055
  21   0.0000       0.138707         3.7744
  22   0.0000       0.174801         4.7566
  23   0.0000       0.177484         4.8296
  24   0.0000       0.188461         5.1283
  25   0.0000       0.212858         5.7921

MULLIKEN ATOMIC CHARGES
-----------------------
   0 C :   -0.037426
   1 C :   -0.080755
   2 H :    0.020619
   3 H :    0.024442
   4 H :    0.024273
   5 C :   -0.020482
   6 H :    0.006856
   7 H :    0.020598
   8 C :    0.047858
   9 H :    0.014010
  10 H :    0.015730
  11 N :   -0.246993
  12 H :   -0.002834
  13 H :    0.016827
  14 H :    0.097837
  15 H :    0.099440
Sum of atomic charges:    0.0000000

LOEWDIN ATOMIC CHARGES
----------------------
   0 C :   -0.067119
   1 C :   -0.050106
   2 H :    0.020557
   3 H :    0.024294
   4 H :    0.022509
   5 C :   -0.047831
   6 H :    0.016222
   7 H :    0.023768
   8 C :    0.011821
   9 H :    0.023845
  10 H :    0.023191
  11 N :   -0.125020
  12 H :   -0.002056
  13 H :    0.019856
  14 H :    0.050226
  15 H :    0.055843

  Mayer bond orders larger than 0.100000
B(  0-C ,  1-C ) :   1.0821 B(  0-C ,  2-H ) :   0.9690 B(  0-C ,  3-H ) :   0.9736
B(  0-C ,  4-H ) :   0.9733 B(  1-C ,  5-C ) :   1.0502 B(  1-C ,  6-H ) :   0.9580
B(  1-C ,  7-H ) :   0.9589 B(  5-C ,  8-C ) :   1.0738 B(  5-C ,  9-H ) :   0.9515
B(  5-C , 10-H ) :   0.9490 B(  8-C , 11-N ) :   1.0788 B(  8-C , 12-H ) :   0.9512
B(  8-C , 13-H ) :   0.9574 B( 11-N , 14-H ) :   0.9639 B( 11-N , 15-H ) :   0.9723

Dispersion correction           -0.001451066
FINAL SINGLE POINT ENERGY      -213.587715897220

DIPOLE MOMENT
-------------
                                X             Y             Z
Electronic contribution:      1.78261      -0.05664       0.06012
Nuclear contribution   :     -1.55607      -0.28178      -0.37076
                        -----------------------------------------
Total Dipole Moment    :      0.22653      -0.33842      -0.31064
                        -----------------------------------------
Magnitude (a.u.)       :      0.51219
Magnitude (Debye)      :      1.30189

Dispersion correction in the Hessian             ... Starting D4

VIBRATIONAL FREQUENCIES
-----------------------

Scaling factor for frequencies =  1.000000000  (already applied!)

   0:         0.00 cm**-1
   1:         0.00 cm**-1
   2:         0.00 cm**-1
   3:         0.00 cm**-1
   4:         0.00 cm**-1
   5:         0.00 cm**-1
   6:        95.89 cm**-1
   7:       161.64 cm**-1
   8:       216.20 cm**-1
   9:       257.54 cm**-1
  10:       333.95 cm**-1
  11:       366.07 cm**-1
  12:       483.70 cm**-1
  13:       768.22 cm**-1
  14:       833.94 cm**-1
  15:       853.66 cm**-1
  16:       855.07 cm**-1
  17:       954.49 cm**-1
  18:       988.84 cm**-1
  19:      1072.98 cm**-1
  20:      1090.63 cm**-1
  21:      1143.30 cm**-1
  22:      1162.87 cm**-1
  23:      1217.08 cm**-1
  24:      1253.31 cm**-1
  25:      1302.49 cm**-1
  26:      1354.76 cm**-1
  27:      1363.62 cm**-1
  28:      1400.02 cm**-1
  29:      1415.87 cm**-1
  30:      1441.28 cm**-1
  31:      1458.47 cm**-1
  32:      1471.78 cm**-1
  33:      1477.70 cm**-1
  34:      1487.38 cm**-1
  35:      1493.80 cm**-1
  36:      1647.02 cm**-1
  37:      2980.85 cm**-1
  38:      3049.18 cm**-1
  39:      3064.39 cm**-1
  40:      3067.60 cm**-1
  41:      3106.61 cm**-1
  42:      3110.34 cm**-1
  43:      3123.91 cm**-1
  44:      3155.30 cm**-1
  45:      3184.09 cm**-1
  46:      3565.20 cm**-1
  47:      3644.78 cm**-1

IR SPECTRUM
-----------

 Mode   freq       eps      Int      T**2         TX        TY        TZ
       cm**-1   L/(mol*cm) km/mol    a.u.
----------------------------------------------------------------------------
  6:     95.89   0.000127    0.64  0.000412  (-0.003208  0.015405 -0.012831)
  7:    161.64   0.001417    7.16  0.002736  (-0.050756 -0.006520 -0.010839)
  8:    216.20   0.000095    0.48  0.000137  (-0.006351  0.001495 -0.009700)
  9:    257.54   0.008538   43.15  0.010346  ( 0.099219  0.011398  0.019276)
 10:    333.95   0.004382   22.15  0.004095  ( 0.059096  0.024412  0.002599)
 11:    366.07   0.000276    1.39  0.000235  (-0.012024 -0.009508  0.000486)
 12:    483.70   0.000914    4.62  0.000590  (-0.014345 -0.019568  0.001132)
 13:    768.22   0.000545    2.75  0.000221  (-0.011190 -0.003216  0.009263)
 14:    833.94   0.002506   12.67  0.000938  ( 0.008993 -0.029272 -0.000455)
 15:    853.66   0.005628   28.44  0.002057  (-0.011533 -0.043860  0.000779)
 16:    855.07   0.016038   81.05  0.005853  ( 0.014909 -0.074064 -0.012055)
 17:    954.49   0.000254    1.28  0.000083  ( 0.008796 -0.002161  0.000994)
 18:    988.84   0.002799   14.15  0.000883  (-0.006612  0.028977 -0.000250)
 19:   1072.98   0.000650    3.29  0.000189  (-0.002328  0.009974 -0.009176)
 20:   1090.63   0.000304    1.53  0.000087  ( 0.002460 -0.001428 -0.008876)
 21:   1143.30   0.001765    8.92  0.000482  (-0.000035 -0.018458 -0.011873)
 22:   1162.87   0.002050   10.36  0.000550  (-0.005806 -0.020435  0.009935)
 23:   1217.08   0.000341    1.72  0.000087  (-0.005064 -0.007125  0.003304)
 24:   1253.31   0.000548    2.77  0.000136  (-0.009310  0.004963  0.005012)
 25:   1302.49   0.000235    1.19  0.000056  ( 0.005109  0.000792 -0.005434)
 26:   1354.76   0.000743    3.75  0.000171  (-0.000702  0.007508 -0.010686)
 27:   1363.62   0.000375    1.90  0.000086  ( 0.007846  0.003066 -0.003866)
 28:   1400.02   0.000093    0.47  0.000021  (-0.004525 -0.000215 -0.000454)
 29:   1415.87   0.001485    7.51  0.000327  ( 0.009772 -0.014971  0.002788)
 30:   1441.28   0.002283   11.54  0.000494  ( 0.009586  0.015009 -0.013313)
 31:   1458.47   0.001332    6.73  0.000285  ( 0.003288  0.001772 -0.016466)
 32:   1471.78   0.000865    4.37  0.000183  (-0.004102 -0.001826  0.012773)
 33:   1477.70   0.000362    1.83  0.000077  (-0.002085 -0.005832 -0.006177)
 34:   1487.38   0.000998    5.04  0.000209  (-0.013470 -0.005277  0.000084)
 35:   1493.80   0.000641    3.24  0.000134  ( 0.007522  0.007014  0.005307)
 36:   1647.02   0.006827   34.50  0.001293  (-0.014697 -0.004830  0.032467)
 37:   2980.85   0.015394   77.80  0.001612  (-0.011738  0.036898  0.010601)
 38:   3049.18   0.006779   34.26  0.000694  ( 0.004673  0.021226  0.014882)
 39:   3064.39   0.004199   21.22  0.000428  (-0.003334  0.007984 -0.018781)
 40:   3067.60   0.004208   21.27  0.000428  (-0.014969  0.014205 -0.001497)
 41:   3106.61   0.007332   37.05  0.000736  ( 0.026445  0.001383  0.005933)
 42:   3110.34   0.006423   32.46  0.000644  (-0.002497 -0.002516  0.025137)
 43:   3123.91   0.006552   33.11  0.000655  ( 0.000004 -0.025556 -0.001185)
 44:   3155.30   0.005833   29.48  0.000577  (-0.005602 -0.005878 -0.022604)
 45:   3184.09   0.002938   14.85  0.000288  (-0.015247 -0.005060  0.005468)
 46:   3565.20   0.000137    0.69  0.000012  (-0.001992  0.001245  0.002553)
 47:   3644.78   0.000439    2.22  0.000038  ( 0.005761  0.000845  0.001915)

--------------------------
THERMOCHEMISTRY AT 298.15K
--------------------------

Temperature         ... 298.15 K
Pressure            ... 1.00 atm
Total Mass          ... 73.14 AMU

Throughout the following assumptions are being made:
  (1) The electronic state is orbitally nondegenerate
  (2) There are no thermally accessible electronically excited states
  (3) Hindered rotations indicated by low frequency modes are not
      treated as such but are treated as vibrations and this may
      cause some error
  (4) All equations used are the standard statistical mechanics
      equations for an ideal gas
  (5) All vibrations are strictly harmonic

freq.      95.89  E(vib)   ...       0.47
freq.     161.64  E(vib)   ...       0.39
freq.     216.20  E(vib)   ...       0.34
freq.     257.54  E(vib)   ...       0.30
freq.     333.95  E(vib)   ...       0.24
freq.     366.07  E(vib)   ...       0.22
freq.     483.70  E(vib)   ...       0.15
freq.     768.22  E(vib)   ...       0.06
freq.     833.94  E(vib)   ...       0.04
freq.     853.66  E(vib)   ...       0.04
freq.     855.07  E(vib)   ...       0.04
freq.     954.49  E(vib)   ...       0.03
freq.     988.84  E(vib)   ...       0.02
freq.    1072.98  E(vib)   ...       0.02
freq.    1090.63  E(vib)   ...       0.02
freq.    1143.30  E(vib)   ...       0.01
freq.    1162.87  E(vib)   ...       0.01
freq.    1217.08  E(vib)   ...       0.01
freq.    1253.31  E(vib)   ...       0.01
freq.    1302.49  E(vib)   ...       0.01
freq.    1354.76  E(vib)   ...       0.01
freq.    1363.62  E(vib)   ...       0.01
freq.    1400.02  E(vib)   ...       0.00
freq.    1415.87  E(vib)   ...       0.00
freq.    1441.28  E(vib)   ...       0.00
freq.    1458.47  E(vib)   ...       0.00
freq.    1471.78  E(vib)   ...       0.00
freq.    1477.70  E(vib)   ...       0.00
freq.    1487.38  E(vib)   ...       0.00
freq.    1493.80  E(vib)   ...       0.00
freq.    1647.02  E(vib)   ...       0.00
freq.    2980.85  E(vib)   ...       0.00
freq.    3049.18  E(vib)   ...       0.00
freq.    3064.39  E(vib)   ...       0.00
freq.    3067.60  E(vib)   ...       0.00
freq.    3106.61  E(vib)   ...       0.00
freq.    3110.34  E(vib)   ...       0.00
freq.    3123.91  E(vib)   ...       0.00
freq.    3155.30  E(vib)   ...       0.00
freq.    3184.09  E(vib)   ...       0.00
freq.    3565.20  E(vib)   ...       0.00
freq.    3644.78  E(vib)   ...       0.00

------------
INNER ENERGY
------------

The inner energy is: U= E(el) + E(ZPE) + E(vib) + E(rot) + E(trans)
    E(el)   - is the total energy from the electronic structure calculation
              = E(kin-el) + E(nuc-el) + E(el-el) + E(nuc-nuc)
    E(ZPE)  - the the zero temperature vibrational energy from the frequency calculation
    E(vib)  - the the finite temperature correction to E(ZPE) due to population
              of excited vibrational states
    E(rot)  - is the rotational thermal energy
    E(trans)- is the translational thermal energy

Summary of contributions to the inner energy U:
Electronic energy                ...   -213.58771590 Eh
Zero point energy                ...      0.15144308 Eh      95.03 kcal/mol
Thermal vibrational correction   ...      0.00390752 Eh       2.45 kcal/mol
Thermal rotational correction    ...      0.00141627 Eh       0.89 kcal/mol
Thermal translational correction ...      0.00141627 Eh       0.89 kcal/mol
-----------------------------------------------------------------------
Total thermal energy                   -213.42953276 Eh

Summary of corrections to the electronic energy:
(perhaps to be used in another calculation)
Total thermal correction                  0.00674006 Eh       4.23 kcal/mol
Non-thermal (ZPE) correction              0.15144308 Eh      95.03 kcal/mol
-----------------------------------------------------------------------
Total correction                          0.15818314 Eh      99.26 kcal/mol

--------
ENTHALPY
--------

The enthalpy is H = U + kB*T
                kB is Boltzmann's constant
Total free energy                 ...   -213.42953276 Eh
Thermal Enthalpy correction       ...      0.00094421 Eh       0.59 kcal/mol
-----------------------------------------------------------------------
Total Enthalpy                    ...   -213.42858855 Eh

Note: Only C1 symmetry has been detected, increase convergence thresholds
      if your molecule has a higher symmetry. Symmetry factor of 1.0 is
      used for the rotational entropy correction.

Note: Rotational entropy computed according to Herzberg
Infrared and Raman Spectra, Chapter V,1, Van Nostrand Reinhold, 1945
Point Group:  C1, Symmetry Number:   1
Rotational constants in cm-1:     0.247528     0.111405     0.086480

Vibrational entropy computed according to the QRRHO of S. Grimme
Chem.Eur.J. 2012 18 9955

-------
ENTROPY
-------

The entropy contributions are T*S = T*(S(el)+S(vib)+S(rot)+S(trans))
     S(el)   - electronic entropy
     S(vib)  - vibrational entropy
     S(rot)  - rotational entropy
     S(trans)- translational entropy
The entropies will be listed as multiplied by the temperature to get
units of energy

Electronic entropy                ...      0.00000000 Eh      0.00 kcal/mol
Vibrational entropy               ...      0.00659625 Eh      4.14 kcal/mol
Rotational entropy                ...      0.01236160 Eh      7.76 kcal/mol
Translational entropy             ...      0.01842822 Eh     11.56 kcal/mol
-----------------------------------------------------------------------
Final entropy term                ...      0.03738607 Eh     23.46 kcal/mol

In case the symmetry of your molecule has not been determined correctly
or in case you have a reason to use a different symmetry number we print
out the resulting rotational entropy values for sn=1,12 :
 --------------------------------------------------------
|  sn= 1 | S(rot)=       0.01236160 Eh      7.76 kcal/mol|
|  sn= 2 | S(rot)=       0.01170715 Eh      7.35 kcal/mol|
|  sn= 3 | S(rot)=       0.01132431 Eh      7.11 kcal/mol|
|  sn= 4 | S(rot)=       0.01105269 Eh      6.94 kcal/mol|
|  sn= 5 | S(rot)=       0.01084200 Eh      6.80 kcal/mol|
|  sn= 6 | S(rot)=       0.01066986 Eh      6.70 kcal/mol|
|  sn= 7 | S(rot)=       0.01052431 Eh      6.60 kcal/mol|
|  sn= 8 | S(rot)=       0.01039823 Eh      6.52 kcal/mol|
|  sn= 9 | S(rot)=       0.01028703 Eh      6.46 kcal/mol|
|  sn=10 | S(rot)=       0.01018755 Eh      6.39 kcal/mol|
|  sn=11 | S(rot)=       0.01009756 Eh      6.34 kcal/mol|
|  sn=12 | S(rot)=       0.01001540 Eh      6.28 kcal/mol|
 --------------------------------------------------------

-------------------
GIBBS FREE ENERGY
-------------------

The Gibbs free energy is G = H - T*S

                             ****ORCA TERMINATED NORMALLY****
TOTAL RUN TIME: 0 days 0 hours 5 minutes 52 seconds 227 msec
