                         Program Version 5.0.4 -  RELEASE  -
|  1> # ORCA 5.0.4 - /users/bwb16179/postgrad/2024_06/pKa_Reviewer_Comments/CREST_Confs/butylamine/butylamine_deprot_aq_2.inp # write input file
|  2> # Basic Mode
|  3> #
|  4> ! Opt Freq wB97X Def2-SVP D4 SlowConv TightSCF Defgrid2 Def2/J RIJCOSX
|  5>
|  6> %PAL NPROCS 4 END
|  7>
|  8> %maxcore 4500
|  9>
| 10> %geom
| 11> Maxiter 150
| 12> END
| 13>
| 14> * xyzfile 0 1 butylamine_deprot_aq_2.xyz
| 15>
| 16>                          ****END OF INPUT****
 Total Charge           Charge          ....    0
 Multiplicity           Mult            ....    1
 Number of Electrons    NEL             ....   42
Dispersion correction           -0.001395659
FINAL SINGLE POINT ENERGY      -213.588344966661
Dispersion correction            ... Starting D4
Dispersion correction           -0.001392985
FINAL SINGLE POINT ENERGY      -213.589630491834
Dispersion correction            ... Starting D4
Dispersion correction           -0.001392975
FINAL SINGLE POINT ENERGY      -213.589795556151
Dispersion correction            ... Starting D4
Dispersion correction           -0.001393567
FINAL SINGLE POINT ENERGY      -213.589848245312
Dispersion correction            ... Starting D4
Dispersion correction           -0.001393770
FINAL SINGLE POINT ENERGY      -213.589850778501
Dispersion correction            ... Starting D4
                    ***********************HURRAY********************

CARTESIAN COORDINATES (ANGSTROEM)
---------------------------------
  C     -2.126736    0.319983    0.611462
  C     -1.394726   -0.476894   -0.464485
  H     -3.162295   -0.031815    0.734692
  H     -2.168415    1.390984    0.352794
  H     -1.634549    0.236392    1.593026
  C      0.027695    0.006991   -0.745414
  H     -1.975648   -0.439606   -1.401248
  H     -1.362544   -1.542781   -0.174906
  C      0.999076   -0.153576    0.425927
  H      0.003097    1.071676   -1.046800
  H      0.436153   -0.543655   -1.612260
  N      2.371325    0.241758    0.161230
  H      0.997303   -1.209107    0.753365
  H      0.639753    0.424564    1.294280
  H      2.408389    1.223613   -0.106445
  H      2.740839   -0.279390   -0.631967

 Multiplicity           Mult            ....    1
 Number of Electrons    NEL             ....   42
 Basis Dimension        Dim             ....  125

ORBITAL ENERGIES
----------------

  NO   OCC          E(Eh)            E(eV)
   0   2.0000     -14.376115      -391.1940
   1   2.0000     -10.284626      -279.8589
   2   2.0000     -10.266963      -279.3783
   3   2.0000     -10.261962      -279.2422
   4   2.0000     -10.261821      -279.2383
   5   2.0000      -0.997794       -27.1514
   6   2.0000      -0.910265       -24.7696
   7   2.0000      -0.819916       -22.3111
   8   2.0000      -0.745788       -20.2939
   9   2.0000      -0.685374       -18.6500
  10   2.0000      -0.607852       -16.5405
  11   2.0000      -0.571138       -15.5415
  12   2.0000      -0.553796       -15.0695
  13   2.0000      -0.518388       -14.1061
  14   2.0000      -0.509781       -13.8718
  15   2.0000      -0.488329       -13.2881
  16   2.0000      -0.459963       -12.5162
  17   2.0000      -0.443408       -12.0657
  18   2.0000      -0.427358       -11.6290
  19   2.0000      -0.422387       -11.4937
  20   2.0000      -0.331103        -9.0098
  21   0.0000       0.142320         3.8727
  22   0.0000       0.159177         4.3314
  23   0.0000       0.172898         4.7048
  24   0.0000       0.180067         4.8999
  25   0.0000       0.213412         5.8072

MULLIKEN ATOMIC CHARGES
-----------------------
   0 C :   -0.053868
   1 C :   -0.054766
   2 H :    0.031016
   3 H :    0.022982
   4 H :    0.030529
   5 C :   -0.054248
   6 H :    0.021171
   7 H :    0.016780
   8 C :    0.056899
   9 H :    0.002189
  10 H :    0.006190
  11 N :   -0.241076
  12 H :    0.014574
  13 H :    0.017530
  14 H :    0.092415
  15 H :    0.091683
Sum of atomic charges:    0.0000000

LOEWDIN ATOMIC CHARGES
----------------------
   0 C :   -0.066288
   1 C :   -0.045984
   2 H :    0.027009
   3 H :    0.023514
   4 H :    0.022436
   5 C :   -0.063555
   6 H :    0.023969
   7 H :    0.021442
   8 C :    0.005827
   9 H :    0.014749
  10 H :    0.017230
  11 N :   -0.117711
  12 H :    0.018205
  13 H :    0.017399
  14 H :    0.051255
  15 H :    0.050502

  Mayer bond orders larger than 0.100000
B(  0-C ,  1-C ) :   1.0770 B(  0-C ,  2-H ) :   0.9734 B(  0-C ,  3-H ) :   0.9762
B(  0-C ,  4-H ) :   0.9759 B(  1-C ,  5-C ) :   1.0599 B(  1-C ,  6-H ) :   0.9540
B(  1-C ,  7-H ) :   0.9547 B(  5-C ,  8-C ) :   1.0380 B(  5-C ,  9-H ) :   0.9483
B(  5-C , 10-H ) :   0.9493 B(  8-C , 11-N ) :   1.0889 B(  8-C , 12-H ) :   0.9590
B(  8-C , 13-H ) :   0.9588 B( 11-N , 14-H ) :   0.9806 B( 11-N , 15-H ) :   0.9811

Dispersion correction           -0.001393891
FINAL SINGLE POINT ENERGY      -213.589851094679

DIPOLE MOMENT
-------------
                                X             Y             Z
Electronic contribution:      2.62481      -0.18222      -0.23150
Nuclear contribution   :     -2.89559       0.27735      -0.22078
                        -----------------------------------------
Total Dipole Moment    :     -0.27077       0.09513      -0.45228
                        -----------------------------------------
Magnitude (a.u.)       :      0.53565
Magnitude (Debye)      :      1.36152

Dispersion correction in the Hessian             ... Starting D4

VIBRATIONAL FREQUENCIES
-----------------------

Scaling factor for frequencies =  1.000000000  (already applied!)

   0:         0.00 cm**-1
   1:         0.00 cm**-1
   2:         0.00 cm**-1
   3:         0.00 cm**-1
   4:         0.00 cm**-1
   5:         0.00 cm**-1
   6:       101.29 cm**-1
   7:       133.40 cm**-1
   8:       213.52 cm**-1
   9:       287.35 cm**-1
  10:       307.77 cm**-1
  11:       351.22 cm**-1
  12:       491.17 cm**-1
  13:       749.92 cm**-1
  14:       788.85 cm**-1
  15:       853.11 cm**-1
  16:       913.83 cm**-1
  17:       935.15 cm**-1
  18:       990.47 cm**-1
  19:      1051.12 cm**-1
  20:      1108.70 cm**-1
  21:      1128.87 cm**-1
  22:      1163.29 cm**-1
  23:      1209.79 cm**-1
  24:      1284.26 cm**-1
  25:      1310.33 cm**-1
  26:      1339.34 cm**-1
  27:      1376.99 cm**-1
  28:      1384.48 cm**-1
  29:      1419.74 cm**-1
  30:      1422.61 cm**-1
  31:      1463.55 cm**-1
  32:      1471.63 cm**-1
  33:      1479.27 cm**-1
  34:      1485.13 cm**-1
  35:      1486.78 cm**-1
  36:      1651.10 cm**-1
  37:      3042.18 cm**-1
  38:      3060.43 cm**-1
  39:      3061.24 cm**-1
  40:      3063.81 cm**-1
  41:      3093.70 cm**-1
  42:      3114.64 cm**-1
  43:      3122.10 cm**-1
  44:      3155.81 cm**-1
  45:      3165.20 cm**-1
  46:      3554.40 cm**-1
  47:      3635.78 cm**-1

IR SPECTRUM
-----------

 Mode   freq       eps      Int      T**2         TX        TY        TZ
       cm**-1   L/(mol*cm) km/mol    a.u.
----------------------------------------------------------------------------
  6:    101.29   0.000256    1.30  0.000790  (-0.008601  0.024813  0.010011)
  7:    133.40   0.000034    0.17  0.000079  ( 0.002133 -0.008266 -0.002418)
  8:    213.52   0.000284    1.44  0.000415  ( 0.018468  0.008146 -0.002781)
  9:    287.35   0.002463   12.45  0.002675  (-0.004435 -0.049977 -0.012550)
 10:    307.77   0.007473   37.77  0.007578  (-0.023782  0.078135  0.030118)
 11:    351.22   0.000386    1.95  0.000343  (-0.016156 -0.008670  0.002682)
 12:    491.17   0.000658    3.32  0.000418  ( 0.019324  0.006469  0.001651)
 13:    749.92   0.000483    2.44  0.000201  ( 0.006838 -0.011845  0.003751)
 14:    788.85   0.000376    1.90  0.000149  (-0.009671 -0.003457  0.006583)
 15:    853.11   0.031699  160.20  0.011595  ( 0.099144  0.003030  0.041913)
 16:    913.83   0.006920   34.97  0.002363  ( 0.043021  0.007150  0.021479)
 17:    935.15   0.000315    1.59  0.000105  (-0.008994  0.003115  0.003822)
 18:    990.47   0.001930    9.75  0.000608  (-0.016373  0.003063 -0.018183)
 19:   1051.12   0.000095    0.48  0.000028  ( 0.002460  0.004708  0.000011)
 20:   1108.70   0.000080    0.40  0.000022  ( 0.004677  0.000215  0.000685)
 21:   1128.87   0.005255   26.55  0.001453  ( 0.036424  0.003177  0.010759)
 22:   1163.29   0.001003    5.07  0.000269  (-0.012877 -0.004469  0.009125)
 23:   1209.79   0.000189    0.96  0.000049  ( 0.003804  0.005465 -0.002099)
 24:   1284.26   0.000248    1.25  0.000060  ( 0.007675 -0.000642  0.000995)
 25:   1310.33   0.000180    0.91  0.000043  (-0.002325  0.005642  0.002369)
 26:   1339.34   0.001135    5.73  0.000264  (-0.015658 -0.002833 -0.003347)
 27:   1376.99   0.000051    0.26  0.000012  (-0.000551 -0.000162  0.003365)
 28:   1384.48   0.000204    1.03  0.000046  ( 0.004857  0.004690 -0.000692)
 29:   1419.74   0.001202    6.08  0.000264  ( 0.004672 -0.010712 -0.011302)
 30:   1422.61   0.002006   10.14  0.000440  ( 0.020957  0.000082  0.000848)
 31:   1463.55   0.000078    0.39  0.000017  (-0.002989 -0.002730 -0.000491)
 32:   1471.63   0.000173    0.87  0.000037  ( 0.002266  0.005499  0.001114)
 33:   1479.27   0.001277    6.45  0.000269  (-0.001604  0.010583 -0.012445)
 34:   1485.13   0.000673    3.40  0.000142  (-0.001769  0.003162 -0.011331)
 35:   1486.78   0.001257    6.35  0.000264  ( 0.012906  0.009864 -0.000027)
 36:   1651.10   0.004303   21.74  0.000813  ( 0.013107  0.011407 -0.022612)
 37:   3042.18   0.005414   27.36  0.000555  ( 0.010899  0.011967 -0.017126)
 38:   3060.43   0.006817   34.45  0.000695  ( 0.005652  0.016339 -0.019905)
 39:   3061.24   0.006591   33.31  0.000672  (-0.000818 -0.019671 -0.016860)
 40:   3063.81   0.003897   19.69  0.000397  ( 0.015867  0.004200 -0.011293)
 41:   3093.70   0.003230   16.32  0.000326  (-0.002655  0.015654  0.008586)
 42:   3114.64   0.003759   19.00  0.000377  (-0.005803  0.002666 -0.018325)
 43:   3122.10   0.010753   54.34  0.001075  (-0.011961  0.029429  0.008102)
 44:   3155.81   0.005983   30.23  0.000592  (-0.002602 -0.018719  0.015311)
 45:   3165.20   0.005389   27.23  0.000531  (-0.019718 -0.003684 -0.011355)
 46:   3554.40   0.000036    0.18  0.000003  (-0.001075  0.000367 -0.001366)
 47:   3635.78   0.000223    1.13  0.000019  (-0.000743  0.004092  0.001369)

--------------------------
THERMOCHEMISTRY AT 298.15K
--------------------------

Temperature         ... 298.15 K
Pressure            ... 1.00 atm
Total Mass          ... 73.14 AMU

Throughout the following assumptions are being made:
  (1) The electronic state is orbitally nondegenerate
  (2) There are no thermally accessible electronically excited states
  (3) Hindered rotations indicated by low frequency modes are not
      treated as such but are treated as vibrations and this may
      cause some error
  (4) All equations used are the standard statistical mechanics
      equations for an ideal gas
  (5) All vibrations are strictly harmonic

freq.     101.29  E(vib)   ...       0.46
freq.     133.40  E(vib)   ...       0.42
freq.     213.52  E(vib)   ...       0.34
freq.     287.35  E(vib)   ...       0.27
freq.     307.77  E(vib)   ...       0.26
freq.     351.22  E(vib)   ...       0.23
freq.     491.17  E(vib)   ...       0.14
freq.     749.92  E(vib)   ...       0.06
freq.     788.85  E(vib)   ...       0.05
freq.     853.11  E(vib)   ...       0.04
freq.     913.83  E(vib)   ...       0.03
freq.     935.15  E(vib)   ...       0.03
freq.     990.47  E(vib)   ...       0.02
freq.    1051.12  E(vib)   ...       0.02
freq.    1108.70  E(vib)   ...       0.02
freq.    1128.87  E(vib)   ...       0.01
freq.    1163.29  E(vib)   ...       0.01
freq.    1209.79  E(vib)   ...       0.01
freq.    1284.26  E(vib)   ...       0.01
freq.    1310.33  E(vib)   ...       0.01
freq.    1339.34  E(vib)   ...       0.01
freq.    1376.99  E(vib)   ...       0.01
freq.    1384.48  E(vib)   ...       0.00
freq.    1419.74  E(vib)   ...       0.00
freq.    1422.61  E(vib)   ...       0.00
freq.    1463.55  E(vib)   ...       0.00
freq.    1471.63  E(vib)   ...       0.00
freq.    1479.27  E(vib)   ...       0.00
freq.    1485.13  E(vib)   ...       0.00
freq.    1486.78  E(vib)   ...       0.00
freq.    1651.10  E(vib)   ...       0.00
freq.    3042.18  E(vib)   ...       0.00
freq.    3060.43  E(vib)   ...       0.00
freq.    3061.24  E(vib)   ...       0.00
freq.    3063.81  E(vib)   ...       0.00
freq.    3093.70  E(vib)   ...       0.00
freq.    3114.64  E(vib)   ...       0.00
freq.    3122.10  E(vib)   ...       0.00
freq.    3155.81  E(vib)   ...       0.00
freq.    3165.20  E(vib)   ...       0.00
freq.    3554.40  E(vib)   ...       0.00
freq.    3635.78  E(vib)   ...       0.00

------------
INNER ENERGY
------------

The inner energy is: U= E(el) + E(ZPE) + E(vib) + E(rot) + E(trans)
    E(el)   - is the total energy from the electronic structure calculation
              = E(kin-el) + E(nuc-el) + E(el-el) + E(nuc-nuc)
    E(ZPE)  - the the zero temperature vibrational energy from the frequency calculation
    E(vib)  - the the finite temperature correction to E(ZPE) due to population
              of excited vibrational states
    E(rot)  - is the rotational thermal energy
    E(trans)- is the translational thermal energy

Summary of contributions to the inner energy U:
Electronic energy                ...   -213.58985109 Eh
Zero point energy                ...      0.15132339 Eh      94.96 kcal/mol
Thermal vibrational correction   ...      0.00396286 Eh       2.49 kcal/mol
Thermal rotational correction    ...      0.00141627 Eh       0.89 kcal/mol
Thermal translational correction ...      0.00141627 Eh       0.89 kcal/mol
-----------------------------------------------------------------------
Total thermal energy                   -213.43173230 Eh

Summary of corrections to the electronic energy:
(perhaps to be used in another calculation)
Total thermal correction                  0.00679540 Eh       4.26 kcal/mol
Non-thermal (ZPE) correction              0.15132339 Eh      94.96 kcal/mol
-----------------------------------------------------------------------
Total correction                          0.15811879 Eh      99.22 kcal/mol

--------
ENTHALPY
--------

The enthalpy is H = U + kB*T
                kB is Boltzmann's constant
Total free energy                 ...   -213.43173230 Eh
Thermal Enthalpy correction       ...      0.00094421 Eh       0.59 kcal/mol
-----------------------------------------------------------------------
Total Enthalpy                    ...   -213.43078809 Eh

Note: Only C1 symmetry has been detected, increase convergence thresholds
      if your molecule has a higher symmetry. Symmetry factor of 1.0 is
      used for the rotational entropy correction.

Note: Rotational entropy computed according to Herzberg
Infrared and Raman Spectra, Chapter V,1, Van Nostrand Reinhold, 1945
Point Group:  C1, Symmetry Number:   1
Rotational constants in cm-1:     0.400807     0.076987     0.071080

Vibrational entropy computed according to the QRRHO of S. Grimme
Chem.Eur.J. 2012 18 9955

-------
ENTROPY
-------

The entropy contributions are T*S = T*(S(el)+S(vib)+S(rot)+S(trans))
     S(el)   - electronic entropy
     S(vib)  - vibrational entropy
     S(rot)  - rotational entropy
     S(trans)- translational entropy
The entropies will be listed as multiplied by the temperature to get
units of energy

Electronic entropy                ...      0.00000000 Eh      0.00 kcal/mol
Vibrational entropy               ...      0.00674021 Eh      4.23 kcal/mol
Rotational entropy                ...      0.01240112 Eh      7.78 kcal/mol
Translational entropy             ...      0.01842822 Eh     11.56 kcal/mol
-----------------------------------------------------------------------
Final entropy term                ...      0.03756955 Eh     23.58 kcal/mol

In case the symmetry of your molecule has not been determined correctly
or in case you have a reason to use a different symmetry number we print
out the resulting rotational entropy values for sn=1,12 :
 --------------------------------------------------------
|  sn= 1 | S(rot)=       0.01240112 Eh      7.78 kcal/mol|
|  sn= 2 | S(rot)=       0.01174666 Eh      7.37 kcal/mol|
|  sn= 3 | S(rot)=       0.01136383 Eh      7.13 kcal/mol|
|  sn= 4 | S(rot)=       0.01109220 Eh      6.96 kcal/mol|
|  sn= 5 | S(rot)=       0.01088152 Eh      6.83 kcal/mol|
|  sn= 6 | S(rot)=       0.01070937 Eh      6.72 kcal/mol|
|  sn= 7 | S(rot)=       0.01056382 Eh      6.63 kcal/mol|
|  sn= 8 | S(rot)=       0.01043775 Eh      6.55 kcal/mol|
|  sn= 9 | S(rot)=       0.01032654 Eh      6.48 kcal/mol|
|  sn=10 | S(rot)=       0.01022706 Eh      6.42 kcal/mol|
|  sn=11 | S(rot)=       0.01013707 Eh      6.36 kcal/mol|
|  sn=12 | S(rot)=       0.01005491 Eh      6.31 kcal/mol|
 --------------------------------------------------------

-------------------
GIBBS FREE ENERGY
-------------------

The Gibbs free energy is G = H - T*S

                             ****ORCA TERMINATED NORMALLY****
TOTAL RUN TIME: 0 days 0 hours 3 minutes 33 seconds 893 msec
