                         Program Version 5.0.4 -  RELEASE  -
|  1> # ORCA 5.0.4 - /users/bwb16179/postgrad/2024_06/pKa_Reviewer_Comments/CREST_Confs/butylamine/butylamine_deprot_aq_4.inp # write input file
|  2> # Basic Mode
|  3> #
|  4> ! Opt Freq wB97X Def2-SVP D4 SlowConv TightSCF Defgrid2 Def2/J RIJCOSX
|  5>
|  6> %PAL NPROCS 4 END
|  7>
|  8> %maxcore 4500
|  9>
| 10> %geom
| 11> Maxiter 150
| 12> END
| 13>
| 14> * xyzfile 0 1 butylamine_deprot_aq_4.xyz
| 15>
| 16>                          ****END OF INPUT****
 Total Charge           Charge          ....    0
 Multiplicity           Mult            ....    1
 Number of Electrons    NEL             ....   42
Dispersion correction           -0.001446863
FINAL SINGLE POINT ENERGY      -213.588809856274
Dispersion correction            ... Starting D4
Dispersion correction           -0.001446805
FINAL SINGLE POINT ENERGY      -213.590056176411
Dispersion correction            ... Starting D4
Dispersion correction           -0.001448448
FINAL SINGLE POINT ENERGY      -213.590232404497
Dispersion correction            ... Starting D4
FINAL SINGLE POINT ENERGY      -213.590303029261
Dispersion correction           -0.001452150
FINAL SINGLE POINT ENERGY      -213.590309265426
Dispersion correction            ... Starting D4
Dispersion correction           -0.001453003
FINAL SINGLE POINT ENERGY      -213.590311443635
Dispersion correction            ... Starting D4
                    ***********************HURRAY********************

CARTESIAN COORDINATES (ANGSTROEM)
---------------------------------
  C     -1.868321    0.758461    0.115745
  C     -1.125343   -0.387549   -0.563742
  H     -1.204213    1.611081    0.330904
  H     -2.305030    0.434246    1.074572
  H     -2.688807    1.134285   -0.514366
  C     -0.019588   -1.009004    0.290209
  H     -0.692073   -0.033536   -1.516254
  H     -1.845146   -1.174985   -0.842646
  C      1.115509   -0.050077    0.669535
  H      0.412698   -1.869434   -0.252625
  H     -0.459043   -1.423987    1.215687
  N      1.813147    0.587196   -0.433352
  H      1.854740   -0.600873    1.275769
  H      0.731088    0.743964    1.332733
  H      2.156539   -0.109260   -1.092467
  H      1.189596    1.197592   -0.956913

 Multiplicity           Mult            ....    1
 Number of Electrons    NEL             ....   42
 Basis Dimension        Dim             ....  125

ORBITAL ENERGIES
----------------

  NO   OCC          E(Eh)            E(eV)
   0   2.0000     -14.376835      -391.2136
   1   2.0000     -10.284853      -279.8651
   2   2.0000     -10.267765      -279.4001
   3   2.0000     -10.263791      -279.2920
   4   2.0000     -10.261782      -279.2373
   5   2.0000      -0.998427       -27.1686
   6   2.0000      -0.907536       -24.6953
   7   2.0000      -0.823936       -22.4204
   8   2.0000      -0.751428       -20.4474
   9   2.0000      -0.677264       -18.4293
  10   2.0000      -0.608037       -16.5455
  11   2.0000      -0.573600       -15.6085
  12   2.0000      -0.548322       -14.9206
  13   2.0000      -0.538984       -14.6665
  14   2.0000      -0.500935       -13.6311
  15   2.0000      -0.486881       -13.2487
  16   2.0000      -0.471828       -12.8391
  17   2.0000      -0.434022       -11.8104
  18   2.0000      -0.429269       -11.6810
  19   2.0000      -0.421095       -11.4586
  20   2.0000      -0.331931        -9.0323
  21   0.0000       0.131796         3.5864
  22   0.0000       0.169002         4.5988
  23   0.0000       0.170341         4.6352
  24   0.0000       0.188010         5.1160
  25   0.0000       0.210133         5.7180

MULLIKEN ATOMIC CHARGES
-----------------------
   0 C :   -0.051362
   1 C :   -0.063061
   2 H :    0.024502
   3 H :    0.025862
   4 H :    0.032185
   5 C :   -0.046020
   6 H :   -0.001056
   7 H :    0.023485
   8 C :    0.053860
   9 H :    0.010485
  10 H :    0.011715
  11 N :   -0.250590
  12 H :    0.022105
  13 H :    0.019275
  14 H :    0.093773
  15 H :    0.094842
Sum of atomic charges:   -0.0000000

LOEWDIN ATOMIC CHARGES
----------------------
   0 C :   -0.066631
   1 C :   -0.050763
   2 H :    0.020499
   3 H :    0.024962
   4 H :    0.027362
   5 C :   -0.061799
   6 H :    0.011836
   7 H :    0.024774
   8 C :    0.007047
   9 H :    0.018389
  10 H :    0.022163
  11 N :   -0.116493
  12 H :    0.020904
  13 H :    0.017610
  14 H :    0.051471
  15 H :    0.048666

  Mayer bond orders larger than 0.100000
B(  0-C ,  1-C ) :   1.0746 B(  0-C ,  2-H ) :   0.9749 B(  0-C ,  3-H ) :   0.9753
B(  0-C ,  4-H ) :   0.9735 B(  1-C ,  5-C ) :   1.0635 B(  1-C ,  6-H ) :   0.9498
B(  1-C ,  7-H ) :   0.9564 B(  5-C ,  8-C ) :   1.0419 B(  5-C ,  9-H ) :   0.9496
B(  5-C , 10-H ) :   0.9429 B(  8-C , 11-N ) :   1.0853 B(  8-C , 12-H ) :   0.9598
B(  8-C , 13-H ) :   0.9603 B( 11-N , 14-H ) :   0.9796 B( 11-N , 15-H ) :   0.9824

Dispersion correction           -0.001453182
FINAL SINGLE POINT ENERGY      -213.590311702917

DIPOLE MOMENT
-------------
                                X             Y             Z
Electronic contribution:      2.23478      -0.19717      -0.26695
Nuclear contribution   :     -2.62545      -0.06336       0.03009
                        -----------------------------------------
Total Dipole Moment    :     -0.39066      -0.26054      -0.23687
                        -----------------------------------------
Magnitude (a.u.)       :      0.52593
Magnitude (Debye)      :      1.33681

Dispersion correction in the Hessian             ... Starting D4

VIBRATIONAL FREQUENCIES
-----------------------

Scaling factor for frequencies =  1.000000000  (already applied!)

   0:         0.00 cm**-1
   1:         0.00 cm**-1
   2:         0.00 cm**-1
   3:         0.00 cm**-1
   4:         0.00 cm**-1
   5:         0.00 cm**-1
   6:        64.21 cm**-1
   7:       162.16 cm**-1
   8:       244.04 cm**-1
   9:       273.65 cm**-1
  10:       308.53 cm**-1
  11:       398.28 cm**-1
  12:       508.04 cm**-1
  13:       729.13 cm**-1
  14:       798.76 cm**-1
  15:       859.59 cm**-1
  16:       866.85 cm**-1
  17:       932.05 cm**-1
  18:       970.29 cm**-1
  19:      1051.33 cm**-1
  20:      1061.81 cm**-1
  21:      1131.85 cm**-1
  22:      1171.44 cm**-1
  23:      1195.43 cm**-1
  24:      1262.41 cm**-1
  25:      1311.22 cm**-1
  26:      1358.25 cm**-1
  27:      1373.18 cm**-1
  28:      1398.42 cm**-1
  29:      1404.97 cm**-1
  30:      1418.92 cm**-1
  31:      1457.08 cm**-1
  32:      1471.98 cm**-1
  33:      1472.15 cm**-1
  34:      1479.64 cm**-1
  35:      1487.70 cm**-1
  36:      1645.11 cm**-1
  37:      3049.64 cm**-1
  38:      3060.95 cm**-1
  39:      3066.26 cm**-1
  40:      3071.72 cm**-1
  41:      3103.33 cm**-1
  42:      3117.43 cm**-1
  43:      3123.73 cm**-1
  44:      3154.35 cm**-1
  45:      3162.72 cm**-1
  46:      3558.19 cm**-1
  47:      3642.80 cm**-1

IR SPECTRUM
-----------

 Mode   freq       eps      Int      T**2         TX        TY        TZ
       cm**-1   L/(mol*cm) km/mol    a.u.
----------------------------------------------------------------------------
  6:     64.21   0.000028    0.14  0.000135  ( 0.008346 -0.007875 -0.001937)
  7:    162.16   0.000471    2.38  0.000906  (-0.013872  0.024244  0.011228)
  8:    244.04   0.002176   11.00  0.002782  ( 0.029197 -0.043926  0.000382)
  9:    273.65   0.000237    1.20  0.000270  (-0.009838  0.004473  0.012376)
 10:    308.53   0.006305   31.86  0.006377  ( 0.042067 -0.067787 -0.003585)
 11:    398.28   0.000724    3.66  0.000567  (-0.021615 -0.001099  0.009929)
 12:    508.04   0.002035   10.29  0.001250  (-0.019878 -0.023928  0.016806)
 13:    729.13   0.002828   14.29  0.001210  ( 0.032627  0.011737 -0.002857)
 14:    798.76   0.010839   54.77  0.004234  ( 0.054556  0.031869 -0.015571)
 15:    859.59   0.017008   85.95  0.006175  ( 0.067050  0.040770 -0.004101)
 16:    866.85   0.012107   61.18  0.004359  ( 0.052921  0.037731 -0.011587)
 17:    932.05   0.000350    1.77  0.000117  ( 0.006327  0.008302  0.002885)
 18:    970.29   0.001784    9.01  0.000574  ( 0.016124  0.017389 -0.003368)
 19:   1051.33   0.000591    2.98  0.000175  (-0.005465 -0.008789  0.008258)
 20:   1061.81   0.001161    5.87  0.000341  (-0.013747 -0.012324  0.000586)
 21:   1131.85   0.001592    8.05  0.000439  (-0.016872 -0.012397 -0.000780)
 22:   1171.44   0.001786    9.03  0.000476  ( 0.003970  0.006892 -0.020311)
 23:   1195.43   0.000625    3.16  0.000163  ( 0.011902 -0.001396  0.004409)
 24:   1262.41   0.000288    1.45  0.000071  (-0.005544 -0.003266 -0.005454)
 25:   1311.22   0.000142    0.72  0.000034  (-0.001934  0.005476  0.000084)
 26:   1358.25   0.000971    4.91  0.000223  ( 0.013880  0.003580 -0.004191)
 27:   1373.18   0.000170    0.86  0.000039  (-0.006055 -0.000916 -0.001054)
 28:   1398.42   0.002422   12.24  0.000540  (-0.016871 -0.008370  0.013631)
 29:   1404.97   0.000381    1.92  0.000085  (-0.002493 -0.008634  0.001945)
 30:   1418.92   0.001096    5.54  0.000241  ( 0.006053 -0.013893 -0.003379)
 31:   1457.08   0.000432    2.18  0.000093  (-0.002676  0.009152 -0.001261)
 32:   1471.98   0.001363    6.89  0.000289  (-0.001724  0.009311 -0.014116)
 33:   1472.15   0.000404    2.04  0.000086  ( 0.001377 -0.002775  0.008715)
 34:   1479.64   0.002332   11.78  0.000492  ( 0.015386  0.014067  0.007561)
 35:   1487.70   0.000738    3.73  0.000155  ( 0.005934 -0.005611  0.009390)
 36:   1645.11   0.003542   17.90  0.000672  (-0.000427  0.003092 -0.025733)
 37:   3049.64   0.005158   26.07  0.000528  ( 0.001927 -0.022097  0.005986)
 38:   3060.95   0.004150   20.97  0.000423  (-0.010448  0.015298  0.008937)
 39:   3066.26   0.008022   40.54  0.000816  ( 0.006868  0.005840  0.027114)
 40:   3071.72   0.003095   15.64  0.000314  (-0.005078  0.001701 -0.016904)
 41:   3103.33   0.006691   33.81  0.000673  ( 0.004135 -0.004143 -0.025270)
 42:   3117.43   0.004171   21.08  0.000418  (-0.009530 -0.016164  0.008091)
 43:   3123.73   0.008775   44.34  0.000877  ( 0.022778 -0.017459 -0.007280)
 44:   3154.35   0.006739   34.06  0.000667  (-0.015491 -0.017777  0.010523)
 45:   3162.72   0.004714   23.82  0.000465  (-0.014788  0.000646 -0.015684)
 46:   3558.19   0.000021    0.11  0.000002  (-0.000170 -0.000693 -0.001158)
 47:   3642.80   0.000321    1.62  0.000027  ( 0.002701 -0.004476 -0.000395)

--------------------------
THERMOCHEMISTRY AT 298.15K
--------------------------

Temperature         ... 298.15 K
Pressure            ... 1.00 atm
Total Mass          ... 73.14 AMU

Throughout the following assumptions are being made:
  (1) The electronic state is orbitally nondegenerate
  (2) There are no thermally accessible electronically excited states
  (3) Hindered rotations indicated by low frequency modes are not
      treated as such but are treated as vibrations and this may
      cause some error
  (4) All equations used are the standard statistical mechanics
      equations for an ideal gas
  (5) All vibrations are strictly harmonic

freq.      64.21  E(vib)   ...       0.51
freq.     162.16  E(vib)   ...       0.39
freq.     244.04  E(vib)   ...       0.31
freq.     273.65  E(vib)   ...       0.28
freq.     308.53  E(vib)   ...       0.26
freq.     398.28  E(vib)   ...       0.20
freq.     508.04  E(vib)   ...       0.14
freq.     729.13  E(vib)   ...       0.06
freq.     798.76  E(vib)   ...       0.05
freq.     859.59  E(vib)   ...       0.04
freq.     866.85  E(vib)   ...       0.04
freq.     932.05  E(vib)   ...       0.03
freq.     970.29  E(vib)   ...       0.03
freq.    1051.33  E(vib)   ...       0.02
freq.    1061.81  E(vib)   ...       0.02
freq.    1131.85  E(vib)   ...       0.01
freq.    1171.44  E(vib)   ...       0.01
freq.    1195.43  E(vib)   ...       0.01
freq.    1262.41  E(vib)   ...       0.01
freq.    1311.22  E(vib)   ...       0.01
freq.    1358.25  E(vib)   ...       0.01
freq.    1373.18  E(vib)   ...       0.01
freq.    1398.42  E(vib)   ...       0.00
freq.    1404.97  E(vib)   ...       0.00
freq.    1418.92  E(vib)   ...       0.00
freq.    1457.08  E(vib)   ...       0.00
freq.    1471.98  E(vib)   ...       0.00
freq.    1472.15  E(vib)   ...       0.00
freq.    1479.64  E(vib)   ...       0.00
freq.    1487.70  E(vib)   ...       0.00
freq.    1645.11  E(vib)   ...       0.00
freq.    3049.64  E(vib)   ...       0.00
freq.    3060.95  E(vib)   ...       0.00
freq.    3066.26  E(vib)   ...       0.00
freq.    3071.72  E(vib)   ...       0.00
freq.    3103.33  E(vib)   ...       0.00
freq.    3117.43  E(vib)   ...       0.00
freq.    3123.73  E(vib)   ...       0.00
freq.    3154.35  E(vib)   ...       0.00
freq.    3162.72  E(vib)   ...       0.00
freq.    3558.19  E(vib)   ...       0.00
freq.    3642.80  E(vib)   ...       0.00

------------
INNER ENERGY
------------

The inner energy is: U= E(el) + E(ZPE) + E(vib) + E(rot) + E(trans)
    E(el)   - is the total energy from the electronic structure calculation
              = E(kin-el) + E(nuc-el) + E(el-el) + E(nuc-nuc)
    E(ZPE)  - the the zero temperature vibrational energy from the frequency calculation
    E(vib)  - the the finite temperature correction to E(ZPE) due to population
              of excited vibrational states
    E(rot)  - is the rotational thermal energy
    E(trans)- is the translational thermal energy

Summary of contributions to the inner energy U:
Electronic energy                ...   -213.59031170 Eh
Zero point energy                ...      0.15122382 Eh      94.89 kcal/mol
Thermal vibrational correction   ...      0.00391904 Eh       2.46 kcal/mol
Thermal rotational correction    ...      0.00141627 Eh       0.89 kcal/mol
Thermal translational correction ...      0.00141627 Eh       0.89 kcal/mol
-----------------------------------------------------------------------
Total thermal energy                   -213.43233630 Eh

Summary of corrections to the electronic energy:
(perhaps to be used in another calculation)
Total thermal correction                  0.00675158 Eh       4.24 kcal/mol
Non-thermal (ZPE) correction              0.15122382 Eh      94.89 kcal/mol
-----------------------------------------------------------------------
Total correction                          0.15797541 Eh      99.13 kcal/mol

--------
ENTHALPY
--------

The enthalpy is H = U + kB*T
                kB is Boltzmann's constant
Total free energy                 ...   -213.43233630 Eh
Thermal Enthalpy correction       ...      0.00094421 Eh       0.59 kcal/mol
-----------------------------------------------------------------------
Total Enthalpy                    ...   -213.43139209 Eh

Note: Only C1 symmetry has been detected, increase convergence thresholds
      if your molecule has a higher symmetry. Symmetry factor of 1.0 is
      used for the rotational entropy correction.

Note: Rotational entropy computed according to Herzberg
Infrared and Raman Spectra, Chapter V,1, Van Nostrand Reinhold, 1945
Point Group:  C1, Symmetry Number:   1
Rotational constants in cm-1:     0.264049     0.099084     0.090049

Vibrational entropy computed according to the QRRHO of S. Grimme
Chem.Eur.J. 2012 18 9955

-------
ENTROPY
-------

The entropy contributions are T*S = T*(S(el)+S(vib)+S(rot)+S(trans))
     S(el)   - electronic entropy
     S(vib)  - vibrational entropy
     S(rot)  - rotational entropy
     S(trans)- translational entropy
The entropies will be listed as multiplied by the temperature to get
units of energy

Electronic entropy                ...      0.00000000 Eh      0.00 kcal/mol
Vibrational entropy               ...      0.00657680 Eh      4.13 kcal/mol
Rotational entropy                ...      0.01236734 Eh      7.76 kcal/mol
Translational entropy             ...      0.01842822 Eh     11.56 kcal/mol
-----------------------------------------------------------------------
Final entropy term                ...      0.03737236 Eh     23.45 kcal/mol

In case the symmetry of your molecule has not been determined correctly
or in case you have a reason to use a different symmetry number we print
out the resulting rotational entropy values for sn=1,12 :
 --------------------------------------------------------
|  sn= 1 | S(rot)=       0.01236734 Eh      7.76 kcal/mol|
|  sn= 2 | S(rot)=       0.01171288 Eh      7.35 kcal/mol|
|  sn= 3 | S(rot)=       0.01133005 Eh      7.11 kcal/mol|
|  sn= 4 | S(rot)=       0.01105843 Eh      6.94 kcal/mol|
|  sn= 5 | S(rot)=       0.01084774 Eh      6.81 kcal/mol|
|  sn= 6 | S(rot)=       0.01067559 Eh      6.70 kcal/mol|
|  sn= 7 | S(rot)=       0.01053005 Eh      6.61 kcal/mol|
|  sn= 8 | S(rot)=       0.01040397 Eh      6.53 kcal/mol|
|  sn= 9 | S(rot)=       0.01029276 Eh      6.46 kcal/mol|
|  sn=10 | S(rot)=       0.01019328 Eh      6.40 kcal/mol|
|  sn=11 | S(rot)=       0.01010329 Eh      6.34 kcal/mol|
|  sn=12 | S(rot)=       0.01002114 Eh      6.29 kcal/mol|
 --------------------------------------------------------

-------------------
GIBBS FREE ENERGY
-------------------

The Gibbs free energy is G = H - T*S

                             ****ORCA TERMINATED NORMALLY****
TOTAL RUN TIME: 0 days 0 hours 3 minutes 56 seconds 739 msec
