                         Program Version 5.0.4 -  RELEASE  -
|  1> # ORCA 5.0.4 - /users/bwb16179/postgrad/2024_06/pKa_Reviewer_Comments/CREST_Confs/butylamine/butylamine_deprot_aq_10.inp # write input file
|  2> # Basic Mode
|  3> #
|  4> ! Opt Freq wB97X Def2-SVP D4 SlowConv TightSCF Defgrid2 Def2/J RIJCOSX
|  5>
|  6> %PAL NPROCS 4 END
|  7>
|  8> %maxcore 4500
|  9>
| 10> %geom
| 11> Maxiter 150
| 12> END
| 13>
| 14> * xyzfile 0 1 butylamine_deprot_aq_10.xyz
| 15>
| 16>                          ****END OF INPUT****
 Total Charge           Charge          ....    0
 Multiplicity           Mult            ....    1
 Number of Electrons    NEL             ....   42
Dispersion correction           -0.001440269
FINAL SINGLE POINT ENERGY      -213.590566919183
Dispersion correction            ... Starting D4
Dispersion correction           -0.001441905
FINAL SINGLE POINT ENERGY      -213.590618813741
Dispersion correction            ... Starting D4
Dispersion correction           -0.001449174
FINAL SINGLE POINT ENERGY      -213.590747816848
Dispersion correction            ... Starting D4
FINAL SINGLE POINT ENERGY      -213.590787698622
FINAL SINGLE POINT ENERGY      -213.590816259220
Dispersion correction           -0.001452433
FINAL SINGLE POINT ENERGY      -213.590825843512
Dispersion correction            ... Starting D4
Dispersion correction           -0.001452593
FINAL SINGLE POINT ENERGY      -213.590829065954
Dispersion correction            ... Starting D4
                    ***********************HURRAY********************

CARTESIAN COORDINATES (ANGSTROEM)
---------------------------------
  C     -1.838660    0.761764   -0.120790
  C     -1.109448   -0.349531    0.625437
  H     -2.263162    0.398831   -1.072412
  H     -1.159371    1.597669   -0.350265
  H     -2.667413    1.169122    0.478577
  C     -0.025282   -1.042304   -0.200797
  H     -1.834802   -1.109648    0.962626
  H     -0.648630    0.071634    1.533365
  C      1.070001   -0.112290   -0.716637
  H     -0.482799   -1.555481   -1.065878
  H      0.440286   -1.839157    0.408322
  N      1.679387    0.637326    0.369611
  H      0.630515    0.611585   -1.424579
  H      1.790132   -0.714811   -1.309947
  H      2.363639    1.300973    0.015894
  H      2.180622    0.011012    0.997305

 Multiplicity           Mult            ....    1
 Number of Electrons    NEL             ....   42
 Basis Dimension        Dim             ....  125

ORBITAL ENERGIES
----------------

  NO   OCC          E(Eh)            E(eV)
   0   2.0000     -14.378990      -391.2722
   1   2.0000     -10.285555      -279.8842
   2   2.0000     -10.258860      -279.1578
   3   2.0000     -10.253537      -279.0129
   4   2.0000     -10.251204      -278.9495
   5   2.0000      -0.998940       -27.1825
   6   2.0000      -0.899815       -24.4852
   7   2.0000      -0.818552       -22.2739
   8   2.0000      -0.742377       -20.2011
   9   2.0000      -0.667751       -18.1704
  10   2.0000      -0.602281       -16.3889
  11   2.0000      -0.575567       -15.6620
  12   2.0000      -0.545209       -14.8359
  13   2.0000      -0.535209       -14.5638
  14   2.0000      -0.492293       -13.3960
  15   2.0000      -0.475505       -12.9391
  16   2.0000      -0.466744       -12.7007
  17   2.0000      -0.425297       -11.5729
  18   2.0000      -0.418526       -11.3887
  19   2.0000      -0.413183       -11.2433
  20   2.0000      -0.333925        -9.0866
  21   0.0000       0.139483         3.7955
  22   0.0000       0.175930         4.7873
  23   0.0000       0.178856         4.8669
  24   0.0000       0.194013         5.2793
  25   0.0000       0.214404         5.8342

MULLIKEN ATOMIC CHARGES
-----------------------
   0 C :   -0.057381
   1 C :   -0.030974
   2 H :    0.016118
   3 H :    0.032475
   4 H :    0.026320
   5 C :   -0.061985
   6 H :    0.014225
   7 H :    0.022148
   8 C :    0.060280
   9 H :    0.013678
  10 H :    0.010636
  11 N :   -0.254531
  12 H :    0.012964
  13 H :    0.002783
  14 H :    0.098921
  15 H :    0.094322
Sum of atomic charges:   -0.0000000

LOEWDIN ATOMIC CHARGES
----------------------
   0 C :   -0.065873
   1 C :   -0.044988
   2 H :    0.019532
   3 H :    0.024298
   4 H :    0.025503
   5 C :   -0.050160
   6 H :    0.019589
   7 H :    0.022646
   8 C :    0.009823
   9 H :    0.022088
  10 H :    0.018677
  11 N :   -0.124578
  12 H :    0.015481
  13 H :    0.000070
  14 H :    0.055253
  15 H :    0.052639

  Mayer bond orders larger than 0.100000
B(  0-C ,  1-C ) :   1.0805 B(  0-C ,  2-H ) :   0.9762 B(  0-C ,  3-H ) :   0.9730
B(  0-C ,  4-H ) :   0.9734 B(  1-C ,  5-C ) :   1.0647 B(  1-C ,  6-H ) :   0.9581
B(  1-C ,  7-H ) :   0.9468 B(  5-C ,  8-C ) :   1.0712 B(  5-C ,  9-H ) :   0.9518
B(  5-C , 10-H ) :   0.9525 B(  8-C , 11-N ) :   1.0565 B(  8-C , 12-H ) :   0.9514
B(  8-C , 13-H ) :   0.9544 B( 11-N , 14-H ) :   0.9735 B( 11-N , 15-H ) :   0.9741

Dispersion correction           -0.001452821
FINAL SINGLE POINT ENERGY      -213.590831726038

DIPOLE MOMENT
-------------
                                X             Y             Z
Electronic contribution:      1.88191      -0.11886       0.51872
Nuclear contribution   :     -1.39812      -0.04435      -0.68708
                        -----------------------------------------
Total Dipole Moment    :      0.48379      -0.16322      -0.16836
                        -----------------------------------------
Magnitude (a.u.)       :      0.53762
Magnitude (Debye)      :      1.36653

Dispersion correction in the Hessian             ... Starting D4

VIBRATIONAL FREQUENCIES
-----------------------

Scaling factor for frequencies =  1.000000000  (already applied!)

   0:         0.00 cm**-1
   1:         0.00 cm**-1
   2:         0.00 cm**-1
   3:         0.00 cm**-1
   4:         0.00 cm**-1
   5:         0.00 cm**-1
   6:        47.17 cm**-1
   7:       176.43 cm**-1
   8:       244.46 cm**-1
   9:       265.51 cm**-1
  10:       292.36 cm**-1
  11:       395.71 cm**-1
  12:       530.89 cm**-1
  13:       735.43 cm**-1
  14:       803.17 cm**-1
  15:       857.08 cm**-1
  16:       879.91 cm**-1
  17:       957.67 cm**-1
  18:       989.62 cm**-1
  19:      1051.32 cm**-1
  20:      1071.04 cm**-1
  21:      1138.01 cm**-1
  22:      1159.41 cm**-1
  23:      1207.31 cm**-1
  24:      1276.51 cm**-1
  25:      1319.20 cm**-1
  26:      1326.15 cm**-1
  27:      1363.38 cm**-1
  28:      1403.16 cm**-1
  29:      1417.89 cm**-1
  30:      1443.24 cm**-1
  31:      1457.17 cm**-1
  32:      1466.02 cm**-1
  33:      1475.94 cm**-1
  34:      1485.43 cm**-1
  35:      1506.55 cm**-1
  36:      1641.14 cm**-1
  37:      2993.05 cm**-1
  38:      3051.05 cm**-1
  39:      3057.59 cm**-1
  40:      3077.78 cm**-1
  41:      3093.71 cm**-1
  42:      3107.20 cm**-1
  43:      3133.81 cm**-1
  44:      3152.26 cm**-1
  45:      3163.83 cm**-1
  46:      3561.44 cm**-1
  47:      3648.08 cm**-1

IR SPECTRUM
-----------

 Mode   freq       eps      Int      T**2         TX        TY        TZ
       cm**-1   L/(mol*cm) km/mol    a.u.
----------------------------------------------------------------------------
  6:     47.17   0.000195    0.99  0.001292  ( 0.016286 -0.004883  0.031667)
  7:    176.43   0.001032    5.21  0.001825  (-0.010492  0.022777 -0.034586)
  8:    244.46   0.006518   32.94  0.008321  ( 0.025770  0.076728 -0.042068)
  9:    265.51   0.000077    0.39  0.000091  (-0.003526 -0.008090  0.003629)
 10:    292.36   0.000947    4.79  0.001011  (-0.015472 -0.027324  0.005016)
 11:    395.71   0.000362    1.83  0.000286  (-0.003972 -0.015654 -0.004992)
 12:    530.89   0.001276    6.45  0.000750  ( 0.010569  0.024872  0.004451)
 13:    735.43   0.001406    7.11  0.000597  ( 0.023695  0.000152 -0.005943)
 14:    803.17   0.014874   75.16  0.005779  (-0.014240  0.050985  0.054559)
 15:    857.08   0.009080   45.89  0.003306  (-0.014486  0.033513  0.044420)
 16:    879.91   0.001562    7.90  0.000554  ( 0.013661 -0.006693 -0.017964)
 17:    957.67   0.000228    1.15  0.000074  (-0.008594 -0.000195  0.000538)
 18:    989.62   0.001701    8.60  0.000537  ( 0.009356 -0.016639 -0.013121)
 19:   1051.32   0.000452    2.28  0.000134  (-0.006937 -0.008344 -0.004042)
 20:   1071.04   0.000120    0.61  0.000035  ( 0.001718  0.002124  0.005238)
 21:   1138.01   0.000138    0.70  0.000038  ( 0.005344 -0.002457 -0.001790)
 22:   1159.41   0.002214   11.19  0.000596  (-0.006495 -0.014986 -0.018141)
 23:   1207.31   0.000597    3.02  0.000154  (-0.008803  0.003779  0.007907)
 24:   1276.51   0.000652    3.29  0.000159  ( 0.011805 -0.001575 -0.004180)
 25:   1319.20   0.000272    1.37  0.000064  ( 0.005253  0.005792  0.001776)
 26:   1326.15   0.000468    2.37  0.000110  (-0.008349 -0.000015 -0.006358)
 27:   1363.38   0.000338    1.71  0.000077  ( 0.008568  0.001872 -0.000690)
 28:   1403.16   0.001246    6.30  0.000277  ( 0.013434 -0.001031  0.009775)
 29:   1417.89   0.000833    4.21  0.000183  ( 0.007576 -0.010314  0.004422)
 30:   1443.24   0.001604    8.11  0.000347  (-0.008839 -0.011923 -0.011252)
 31:   1457.17   0.000854    4.32  0.000183  (-0.007051  0.007781  0.008522)
 32:   1466.02   0.000336    1.70  0.000072  ( 0.005679  0.005447 -0.003104)
 33:   1475.94   0.001995   10.08  0.000422  ( 0.012788  0.015968  0.001801)
 34:   1485.43   0.001178    5.95  0.000248  (-0.008938  0.005170  0.011872)
 35:   1506.55   0.001100    5.56  0.000228  ( 0.007691  0.012961  0.000883)
 36:   1641.14   0.005806   29.34  0.001104  (-0.030568 -0.001881 -0.012886)
 37:   2993.05   0.016539   83.58  0.001724  (-0.020891  0.015396  0.032418)
 38:   3051.05   0.007568   38.24  0.000774  (-0.009896  0.024698  0.008131)
 39:   3057.59   0.004399   22.23  0.000449  ( 0.010998 -0.010371  0.014848)
 40:   3077.78   0.006163   31.15  0.000625  (-0.010834 -0.017902  0.013676)
 41:   3093.71   0.002097   10.60  0.000212  (-0.006813  0.012421  0.003293)
 42:   3107.20   0.010839   54.77  0.001089  (-0.016219  0.014991 -0.024510)
 43:   3133.81   0.001767    8.93  0.000176  (-0.011214 -0.002915 -0.006456)
 44:   3152.26   0.007430   37.55  0.000736  ( 0.004563  0.017531  0.020185)
 45:   3163.83   0.005381   27.20  0.000531  ( 0.020121  0.008230 -0.007630)
 46:   3561.44   0.000138    0.70  0.000012  (-0.003375  0.000436  0.000727)
 47:   3648.08   0.000582    2.94  0.000050  (-0.001696 -0.005685  0.003821)

--------------------------
THERMOCHEMISTRY AT 298.15K
--------------------------

Temperature         ... 298.15 K
Pressure            ... 1.00 atm
Total Mass          ... 73.14 AMU

Throughout the following assumptions are being made:
  (1) The electronic state is orbitally nondegenerate
  (2) There are no thermally accessible electronically excited states
  (3) Hindered rotations indicated by low frequency modes are not
      treated as such but are treated as vibrations and this may
      cause some error
  (4) All equations used are the standard statistical mechanics
      equations for an ideal gas
  (5) All vibrations are strictly harmonic

freq.      47.17  E(vib)   ...       0.53
freq.     176.43  E(vib)   ...       0.38
freq.     244.46  E(vib)   ...       0.31
freq.     265.51  E(vib)   ...       0.29
freq.     292.36  E(vib)   ...       0.27
freq.     395.71  E(vib)   ...       0.20
freq.     530.89  E(vib)   ...       0.13
freq.     735.43  E(vib)   ...       0.06
freq.     803.17  E(vib)   ...       0.05
freq.     857.08  E(vib)   ...       0.04
freq.     879.91  E(vib)   ...       0.04
freq.     957.67  E(vib)   ...       0.03
freq.     989.62  E(vib)   ...       0.02
freq.    1051.32  E(vib)   ...       0.02
freq.    1071.04  E(vib)   ...       0.02
freq.    1138.01  E(vib)   ...       0.01
freq.    1159.41  E(vib)   ...       0.01
freq.    1207.31  E(vib)   ...       0.01
freq.    1276.51  E(vib)   ...       0.01
freq.    1319.20  E(vib)   ...       0.01
freq.    1326.15  E(vib)   ...       0.01
freq.    1363.38  E(vib)   ...       0.01
freq.    1403.16  E(vib)   ...       0.00
freq.    1417.89  E(vib)   ...       0.00
freq.    1443.24  E(vib)   ...       0.00
freq.    1457.17  E(vib)   ...       0.00
freq.    1466.02  E(vib)   ...       0.00
freq.    1475.94  E(vib)   ...       0.00
freq.    1485.43  E(vib)   ...       0.00
freq.    1506.55  E(vib)   ...       0.00
freq.    1641.14  E(vib)   ...       0.00
freq.    2993.05  E(vib)   ...       0.00
freq.    3051.05  E(vib)   ...       0.00
freq.    3057.59  E(vib)   ...       0.00
freq.    3077.78  E(vib)   ...       0.00
freq.    3093.71  E(vib)   ...       0.00
freq.    3107.20  E(vib)   ...       0.00
freq.    3133.81  E(vib)   ...       0.00
freq.    3152.26  E(vib)   ...       0.00
freq.    3163.83  E(vib)   ...       0.00
freq.    3561.44  E(vib)   ...       0.00
freq.    3648.08  E(vib)   ...       0.00

------------
INNER ENERGY
------------

The inner energy is: U= E(el) + E(ZPE) + E(vib) + E(rot) + E(trans)
    E(el)   - is the total energy from the electronic structure calculation
              = E(kin-el) + E(nuc-el) + E(el-el) + E(nuc-nuc)
    E(ZPE)  - the the zero temperature vibrational energy from the frequency calculation
    E(vib)  - the the finite temperature correction to E(ZPE) due to population
              of excited vibrational states
    E(rot)  - is the rotational thermal energy
    E(trans)- is the translational thermal energy

Summary of contributions to the inner energy U:
Electronic energy                ...   -213.59083173 Eh
Zero point energy                ...      0.15132517 Eh      94.96 kcal/mol
Thermal vibrational correction   ...      0.00393179 Eh       2.47 kcal/mol
Thermal rotational correction    ...      0.00141627 Eh       0.89 kcal/mol
Thermal translational correction ...      0.00141627 Eh       0.89 kcal/mol
-----------------------------------------------------------------------
Total thermal energy                   -213.43274223 Eh

Summary of corrections to the electronic energy:
(perhaps to be used in another calculation)
Total thermal correction                  0.00676433 Eh       4.24 kcal/mol
Non-thermal (ZPE) correction              0.15132517 Eh      94.96 kcal/mol
-----------------------------------------------------------------------
Total correction                          0.15808950 Eh      99.20 kcal/mol

--------
ENTHALPY
--------

The enthalpy is H = U + kB*T
                kB is Boltzmann's constant
Total free energy                 ...   -213.43274223 Eh
Thermal Enthalpy correction       ...      0.00094421 Eh       0.59 kcal/mol
-----------------------------------------------------------------------
Total Enthalpy                    ...   -213.43179802 Eh

Note: Only C1 symmetry has been detected, increase convergence thresholds
      if your molecule has a higher symmetry. Symmetry factor of 1.0 is
      used for the rotational entropy correction.

Note: Rotational entropy computed according to Herzberg
Infrared and Raman Spectra, Chapter V,1, Van Nostrand Reinhold, 1945
Point Group:  C1, Symmetry Number:   1
Rotational constants in cm-1:     0.259472     0.102429     0.092286

Vibrational entropy computed according to the QRRHO of S. Grimme
Chem.Eur.J. 2012 18 9955

-------
ENTROPY
-------

The entropy contributions are T*S = T*(S(el)+S(vib)+S(rot)+S(trans))
     S(el)   - electronic entropy
     S(vib)  - vibrational entropy
     S(rot)  - rotational entropy
     S(trans)- translational entropy
The entropies will be listed as multiplied by the temperature to get
units of energy

Electronic entropy                ...      0.00000000 Eh      0.00 kcal/mol
Vibrational entropy               ...      0.00663691 Eh      4.16 kcal/mol
Rotational entropy                ...      0.01234833 Eh      7.75 kcal/mol
Translational entropy             ...      0.01842822 Eh     11.56 kcal/mol
-----------------------------------------------------------------------
Final entropy term                ...      0.03741346 Eh     23.48 kcal/mol

In case the symmetry of your molecule has not been determined correctly
or in case you have a reason to use a different symmetry number we print
out the resulting rotational entropy values for sn=1,12 :
 --------------------------------------------------------
|  sn= 1 | S(rot)=       0.01234833 Eh      7.75 kcal/mol|
|  sn= 2 | S(rot)=       0.01169388 Eh      7.34 kcal/mol|
|  sn= 3 | S(rot)=       0.01131104 Eh      7.10 kcal/mol|
|  sn= 4 | S(rot)=       0.01103942 Eh      6.93 kcal/mol|
|  sn= 5 | S(rot)=       0.01082873 Eh      6.80 kcal/mol|
|  sn= 6 | S(rot)=       0.01065659 Eh      6.69 kcal/mol|
|  sn= 7 | S(rot)=       0.01051104 Eh      6.60 kcal/mol|
|  sn= 8 | S(rot)=       0.01038496 Eh      6.52 kcal/mol|
|  sn= 9 | S(rot)=       0.01027376 Eh      6.45 kcal/mol|
|  sn=10 | S(rot)=       0.01017428 Eh      6.38 kcal/mol|
|  sn=11 | S(rot)=       0.01008429 Eh      6.33 kcal/mol|
|  sn=12 | S(rot)=       0.01000213 Eh      6.28 kcal/mol|
 --------------------------------------------------------

-------------------
GIBBS FREE ENERGY
-------------------

The Gibbs free energy is G = H - T*S

                             ****ORCA TERMINATED NORMALLY****
TOTAL RUN TIME: 0 days 0 hours 3 minutes 7 seconds 300 msec
