                         Program Version 5.0.4 -  RELEASE  -
|  1> # ORCA 5.0.4 - /users/bwb16179/postgrad/2024_06/pKa_Reviewer_Comments/CREST_Confs/butylamine/butylamine_deprot_aq_11.inp # write input file
|  2> # Basic Mode
|  3> #
|  4> ! Opt Freq wB97X Def2-SVP D4 SlowConv TightSCF Defgrid2 Def2/J RIJCOSX
|  5>
|  6> %PAL NPROCS 4 END
|  7>
|  8> %maxcore 4500
|  9>
| 10> %geom
| 11> Maxiter 150
| 12> END
| 13>
| 14> * xyzfile 0 1 butylamine_deprot_aq_11.xyz
| 15>
| 16>                          ****END OF INPUT****
 Total Charge           Charge          ....    0
 Multiplicity           Mult            ....    1
 Number of Electrons    NEL             ....   42
Dispersion correction           -0.001455398
FINAL SINGLE POINT ENERGY      -213.585872480186
Dispersion correction            ... Starting D4
Dispersion correction           -0.001456467
FINAL SINGLE POINT ENERGY      -213.587254173337
Dispersion correction            ... Starting D4
Dispersion correction           -0.001457330
FINAL SINGLE POINT ENERGY      -213.587539778924
Dispersion correction            ... Starting D4
FINAL SINGLE POINT ENERGY      -213.587712282229
FINAL SINGLE POINT ENERGY      -213.587760462779
FINAL SINGLE POINT ENERGY      -213.587794926315
Dispersion correction           -0.001457929
FINAL SINGLE POINT ENERGY      -213.587805558461
Dispersion correction            ... Starting D4
Dispersion correction           -0.001457883
FINAL SINGLE POINT ENERGY      -213.587808523054
Dispersion correction            ... Starting D4
                    ***********************HURRAY********************

CARTESIAN COORDINATES (ANGSTROEM)
---------------------------------
  C     -1.623181    0.828346   -0.481063
  C     -1.353950   -0.527240    0.168624
  H     -1.417082    1.658131    0.215367
  H     -2.675928    0.911113   -0.792651
  H     -1.013643    0.984860   -1.385292
  C      0.011708   -0.693233    0.839663
  H     -1.477474   -1.321170   -0.590012
  H     -2.133689   -0.717506    0.925950
  C      1.239950   -0.552212   -0.070616
  H      0.039467   -1.693742    1.305911
  H      0.107702    0.028820    1.673057
  N      1.671032    0.793500   -0.412548
  H      1.063146   -1.108572   -1.009153
  H      2.092971   -1.058313    0.412745
  H      1.859059    1.330089    0.431931
  H      0.947397    1.295980   -0.917903

 Multiplicity           Mult            ....    1
 Number of Electrons    NEL             ....   42
 Basis Dimension        Dim             ....  125

ORBITAL ENERGIES
----------------

  NO   OCC          E(Eh)            E(eV)
   0   2.0000     -14.373863      -391.1327
   1   2.0000     -10.284924      -279.8670
   2   2.0000     -10.268357      -279.4162
   3   2.0000     -10.267057      -279.3808
   4   2.0000     -10.261934      -279.2414
   5   2.0000      -0.995894       -27.0996
   6   2.0000      -0.907342       -24.6900
   7   2.0000      -0.828753       -22.5515
   8   2.0000      -0.744972       -20.2717
   9   2.0000      -0.684504       -18.6263
  10   2.0000      -0.608140       -16.5483
  11   2.0000      -0.569560       -15.4985
  12   2.0000      -0.554840       -15.0980
  13   2.0000      -0.521524       -14.1914
  14   2.0000      -0.510793       -13.8994
  15   2.0000      -0.490801       -13.3554
  16   2.0000      -0.465018       -12.6538
  17   2.0000      -0.446863       -12.1597
  18   2.0000      -0.426608       -11.6086
  19   2.0000      -0.419420       -11.4130
  20   2.0000      -0.328409        -8.9365
  21   0.0000       0.136222         3.7068
  22   0.0000       0.167957         4.5703
  23   0.0000       0.171064         4.6549
  24   0.0000       0.186885         5.0854
  25   0.0000       0.209711         5.7065

MULLIKEN ATOMIC CHARGES
-----------------------
   0 C :   -0.064727
   1 C :   -0.055032
   2 H :    0.022877
   3 H :    0.032007
   4 H :    0.030461
   5 C :   -0.048337
   6 H :    0.018441
   7 H :    0.023079
   8 C :    0.056725
   9 H :    0.015956
  10 H :    0.001460
  11 N :   -0.241071
  12 H :    0.014045
  13 H :    0.020401
  14 H :    0.092683
  15 H :    0.081033
Sum of atomic charges:   -0.0000000

LOEWDIN ATOMIC CHARGES
----------------------
   0 C :   -0.069347
   1 C :   -0.046842
   2 H :    0.021741
   3 H :    0.028205
   4 H :    0.019148
   5 C :   -0.062620
   6 H :    0.021868
   7 H :    0.024215
   8 C :    0.007438
   9 H :    0.025338
  10 H :    0.014992
  11 N :   -0.118275
  12 H :    0.018608
  13 H :    0.021234
  14 H :    0.050630
  15 H :    0.043666

  Mayer bond orders larger than 0.100000
B(  0-C ,  1-C ) :   1.0764 B(  0-C ,  2-H ) :   0.9759 B(  0-C ,  3-H ) :   0.9701
B(  0-C ,  4-H ) :   0.9696 B(  1-C ,  5-C ) :   1.0770 B(  1-C ,  6-H ) :   0.9551
B(  1-C ,  7-H ) :   0.9576 B(  5-C ,  8-C ) :   1.0340 B(  5-C ,  9-H ) :   0.9445
B(  5-C , 10-H ) :   0.9495 B(  8-C , 11-N ) :   1.0894 B(  8-C , 12-H ) :   0.9604
B(  8-C , 13-H ) :   0.9611 B( 11-N , 14-H ) :   0.9775 B( 11-N , 15-H ) :   0.9872

Dispersion correction           -0.001457851
FINAL SINGLE POINT ENERGY      -213.587808677288

DIPOLE MOMENT
-------------
                                X             Y             Z
Electronic contribution:      1.97335      -0.22334       0.03947
Nuclear contribution   :     -2.44505       0.28302       0.25411
                        -----------------------------------------
Total Dipole Moment    :     -0.47170       0.05968       0.29358
                        -----------------------------------------
Magnitude (a.u.)       :      0.55880
Magnitude (Debye)      :      1.42035

Dispersion correction in the Hessian             ... Starting D4

VIBRATIONAL FREQUENCIES
-----------------------

Scaling factor for frequencies =  1.000000000  (already applied!)

   0:         0.00 cm**-1
   1:         0.00 cm**-1
   2:         0.00 cm**-1
   3:         0.00 cm**-1
   4:         0.00 cm**-1
   5:         0.00 cm**-1
   6:        68.63 cm**-1
   7:       144.30 cm**-1
   8:       261.84 cm**-1
   9:       286.67 cm**-1
  10:       320.79 cm**-1
  11:       365.15 cm**-1
  12:       486.68 cm**-1
  13:       768.84 cm**-1
  14:       794.26 cm**-1
  15:       833.52 cm**-1
  16:       879.40 cm**-1
  17:       916.73 cm**-1
  18:       983.79 cm**-1
  19:      1061.22 cm**-1
  20:      1074.31 cm**-1
  21:      1127.37 cm**-1
  22:      1170.50 cm**-1
  23:      1213.01 cm**-1
  24:      1270.65 cm**-1
  25:      1309.35 cm**-1
  26:      1366.93 cm**-1
  27:      1383.58 cm**-1
  28:      1396.07 cm**-1
  29:      1405.48 cm**-1
  30:      1420.06 cm**-1
  31:      1455.16 cm**-1
  32:      1467.07 cm**-1
  33:      1474.19 cm**-1
  34:      1478.81 cm**-1
  35:      1490.90 cm**-1
  36:      1651.33 cm**-1
  37:      3044.26 cm**-1
  38:      3057.69 cm**-1
  39:      3058.49 cm**-1
  40:      3061.29 cm**-1
  41:      3105.33 cm**-1
  42:      3111.84 cm**-1
  43:      3114.84 cm**-1
  44:      3154.43 cm**-1
  45:      3157.93 cm**-1
  46:      3573.31 cm**-1
  47:      3665.18 cm**-1

IR SPECTRUM
-----------

 Mode   freq       eps      Int      T**2         TX        TY        TZ
       cm**-1   L/(mol*cm) km/mol    a.u.
----------------------------------------------------------------------------
  6:     68.63   0.000394    1.99  0.001793  (-0.021313  0.009865 -0.035239)
  7:    144.30   0.000671    3.39  0.001451  (-0.020930 -0.010358 -0.030097)
  8:    261.84   0.005553   28.06  0.006619  ( 0.043666  0.003160  0.068570)
  9:    286.67   0.000782    3.95  0.000851  ( 0.013002 -0.000614  0.026102)
 10:    320.79   0.000725    3.66  0.000705  (-0.004256  0.011652 -0.023477)
 11:    365.15   0.001420    7.18  0.001213  ( 0.025980  0.019438  0.012672)
 12:    486.68   0.000904    4.57  0.000579  (-0.008076 -0.017436  0.014496)
 13:    768.84   0.001245    6.29  0.000505  (-0.011435 -0.019355  0.000126)
 14:    794.26   0.003045   15.39  0.001196  (-0.027819 -0.016404  0.012389)
 15:    833.52   0.028205  142.54  0.010560  ( 0.081435  0.043470 -0.045149)
 16:    879.40   0.009096   45.97  0.003228  (-0.047116 -0.021578  0.023285)
 17:    916.73   0.001125    5.69  0.000383  (-0.018697 -0.005464  0.001893)
 18:    983.79   0.002097   10.60  0.000665  (-0.022840 -0.000411  0.011971)
 19:   1061.22   0.000691    3.49  0.000203  (-0.000779  0.010498 -0.009609)
 20:   1074.31   0.001924    9.72  0.000559  ( 0.015742  0.007674 -0.015883)
 21:   1127.37   0.000788    3.98  0.000218  ( 0.013147 -0.000406 -0.006710)
 22:   1170.50   0.002266   11.45  0.000604  ( 0.007383  0.023010 -0.004485)
 23:   1213.01   0.000042    0.21  0.000011  ( 0.000136  0.003091 -0.001128)
 24:   1270.65   0.000914    4.62  0.000224  ( 0.014570 -0.003137  0.001524)
 25:   1309.35   0.000170    0.86  0.000040  ( 0.003397  0.002387 -0.004821)
 26:   1366.93   0.000788    3.98  0.000180  ( 0.009692  0.009181 -0.001314)
 27:   1383.58   0.000291    1.47  0.000066  ( 0.001385 -0.007404  0.002992)
 28:   1396.07   0.000875    4.42  0.000196  ( 0.011322  0.007939 -0.002115)
 29:   1405.48   0.001133    5.72  0.000251  ( 0.005736  0.011213 -0.009636)
 30:   1420.06   0.001382    6.98  0.000304  ( 0.003684 -0.015120  0.007842)
 31:   1455.16   0.000708    3.58  0.000152  (-0.004260 -0.000003 -0.011563)
 32:   1467.07   0.000156    0.79  0.000033  (-0.004232 -0.003390  0.001926)
 33:   1474.19   0.001386    7.00  0.000293  ( 0.009424 -0.011266 -0.008813)
 34:   1478.81   0.001161    5.87  0.000245  ( 0.011035  0.000906 -0.011065)
 35:   1490.90   0.002045   10.33  0.000428  (-0.010111 -0.008849 -0.015731)
 36:   1651.33   0.003280   16.58  0.000620  (-0.004607  0.024466  0.000331)
 37:   3044.26   0.005451   27.55  0.000559  (-0.005015 -0.003323 -0.022860)
 38:   3057.69   0.004682   23.66  0.000478  ( 0.014906 -0.011883 -0.010700)
 39:   3058.49   0.008774   44.34  0.000895  ( 0.004322  0.029471 -0.002828)
 40:   3061.29   0.001781    9.00  0.000182  (-0.012827  0.001814 -0.003707)
 41:   3105.33   0.007148   36.12  0.000718  ( 0.006284  0.025651 -0.004569)
 42:   3111.84   0.004916   24.85  0.000493  (-0.012885  0.016403  0.007612)
 43:   3114.84   0.007939   40.12  0.000795  (-0.014167 -0.001044 -0.024363)
 44:   3154.43   0.005935   29.99  0.000587  (-0.000030 -0.009565 -0.022264)
 45:   3157.93   0.006547   33.09  0.000647  ( 0.024887  0.001351 -0.005081)
 46:   3573.31   0.000174    0.88  0.000015  ( 0.003362 -0.001166 -0.001580)
 47:   3665.18   0.000913    4.61  0.000078  (-0.007669  0.000769 -0.004281)

--------------------------
THERMOCHEMISTRY AT 298.15K
--------------------------

Temperature         ... 298.15 K
Pressure            ... 1.00 atm
Total Mass          ... 73.14 AMU

Throughout the following assumptions are being made:
  (1) The electronic state is orbitally nondegenerate
  (2) There are no thermally accessible electronically excited states
  (3) Hindered rotations indicated by low frequency modes are not
      treated as such but are treated as vibrations and this may
      cause some error
  (4) All equations used are the standard statistical mechanics
      equations for an ideal gas
  (5) All vibrations are strictly harmonic

freq.      68.63  E(vib)   ...       0.50
freq.     144.30  E(vib)   ...       0.41
freq.     261.84  E(vib)   ...       0.29
freq.     286.67  E(vib)   ...       0.27
freq.     320.79  E(vib)   ...       0.25
freq.     365.15  E(vib)   ...       0.22
freq.     486.68  E(vib)   ...       0.15
freq.     768.84  E(vib)   ...       0.06
freq.     794.26  E(vib)   ...       0.05
freq.     833.52  E(vib)   ...       0.04
freq.     879.40  E(vib)   ...       0.04
freq.     916.73  E(vib)   ...       0.03
freq.     983.79  E(vib)   ...       0.02
freq.    1061.22  E(vib)   ...       0.02
freq.    1074.31  E(vib)   ...       0.02
freq.    1127.37  E(vib)   ...       0.01
freq.    1170.50  E(vib)   ...       0.01
freq.    1213.01  E(vib)   ...       0.01
freq.    1270.65  E(vib)   ...       0.01
freq.    1309.35  E(vib)   ...       0.01
freq.    1366.93  E(vib)   ...       0.01
freq.    1383.58  E(vib)   ...       0.00
freq.    1396.07  E(vib)   ...       0.00
freq.    1405.48  E(vib)   ...       0.00
freq.    1420.06  E(vib)   ...       0.00
freq.    1455.16  E(vib)   ...       0.00
freq.    1467.07  E(vib)   ...       0.00
freq.    1474.19  E(vib)   ...       0.00
freq.    1478.81  E(vib)   ...       0.00
freq.    1490.90  E(vib)   ...       0.00
freq.    1651.33  E(vib)   ...       0.00
freq.    3044.26  E(vib)   ...       0.00
freq.    3057.69  E(vib)   ...       0.00
freq.    3058.49  E(vib)   ...       0.00
freq.    3061.29  E(vib)   ...       0.00
freq.    3105.33  E(vib)   ...       0.00
freq.    3111.84  E(vib)   ...       0.00
freq.    3114.84  E(vib)   ...       0.00
freq.    3154.43  E(vib)   ...       0.00
freq.    3157.93  E(vib)   ...       0.00
freq.    3573.31  E(vib)   ...       0.00
freq.    3665.18  E(vib)   ...       0.00

------------
INNER ENERGY
------------

The inner energy is: U= E(el) + E(ZPE) + E(vib) + E(rot) + E(trans)
    E(el)   - is the total energy from the electronic structure calculation
              = E(kin-el) + E(nuc-el) + E(el-el) + E(nuc-nuc)
    E(ZPE)  - the the zero temperature vibrational energy from the frequency calculation
    E(vib)  - the the finite temperature correction to E(ZPE) due to population
              of excited vibrational states
    E(rot)  - is the rotational thermal energy
    E(trans)- is the translational thermal energy

Summary of contributions to the inner energy U:
Electronic energy                ...   -213.58780868 Eh
Zero point energy                ...      0.15134136 Eh      94.97 kcal/mol
Thermal vibrational correction   ...      0.00392179 Eh       2.46 kcal/mol
Thermal rotational correction    ...      0.00141627 Eh       0.89 kcal/mol
Thermal translational correction ...      0.00141627 Eh       0.89 kcal/mol
-----------------------------------------------------------------------
Total thermal energy                   -213.42971298 Eh

Summary of corrections to the electronic energy:
(perhaps to be used in another calculation)
Total thermal correction                  0.00675434 Eh       4.24 kcal/mol
Non-thermal (ZPE) correction              0.15134136 Eh      94.97 kcal/mol
-----------------------------------------------------------------------
Total correction                          0.15809569 Eh      99.21 kcal/mol

--------
ENTHALPY
--------

The enthalpy is H = U + kB*T
                kB is Boltzmann's constant
Total free energy                 ...   -213.42971298 Eh
Thermal Enthalpy correction       ...      0.00094421 Eh       0.59 kcal/mol
-----------------------------------------------------------------------
Total Enthalpy                    ...   -213.42876878 Eh

Note: Only C1 symmetry has been detected, increase convergence thresholds
      if your molecule has a higher symmetry. Symmetry factor of 1.0 is
      used for the rotational entropy correction.

Note: Rotational entropy computed according to Herzberg
Infrared and Raman Spectra, Chapter V,1, Van Nostrand Reinhold, 1945
Point Group:  C1, Symmetry Number:   1
Rotational constants in cm-1:     0.240708     0.112261     0.085796

Vibrational entropy computed according to the QRRHO of S. Grimme
Chem.Eur.J. 2012 18 9955

-------
ENTROPY
-------

The entropy contributions are T*S = T*(S(el)+S(vib)+S(rot)+S(trans))
     S(el)   - electronic entropy
     S(vib)  - vibrational entropy
     S(rot)  - rotational entropy
     S(trans)- translational entropy
The entropies will be listed as multiplied by the temperature to get
units of energy

Electronic entropy                ...      0.00000000 Eh      0.00 kcal/mol
Vibrational entropy               ...      0.00659363 Eh      4.14 kcal/mol
Rotational entropy                ...      0.01237493 Eh      7.77 kcal/mol
Translational entropy             ...      0.01842822 Eh     11.56 kcal/mol
-----------------------------------------------------------------------
Final entropy term                ...      0.03739678 Eh     23.47 kcal/mol

In case the symmetry of your molecule has not been determined correctly
or in case you have a reason to use a different symmetry number we print
out the resulting rotational entropy values for sn=1,12 :
 --------------------------------------------------------
|  sn= 1 | S(rot)=       0.01237493 Eh      7.77 kcal/mol|
|  sn= 2 | S(rot)=       0.01172048 Eh      7.35 kcal/mol|
|  sn= 3 | S(rot)=       0.01133764 Eh      7.11 kcal/mol|
|  sn= 4 | S(rot)=       0.01106602 Eh      6.94 kcal/mol|
|  sn= 5 | S(rot)=       0.01085533 Eh      6.81 kcal/mol|
|  sn= 6 | S(rot)=       0.01068319 Eh      6.70 kcal/mol|
|  sn= 7 | S(rot)=       0.01053764 Eh      6.61 kcal/mol|
|  sn= 8 | S(rot)=       0.01041156 Eh      6.53 kcal/mol|
|  sn= 9 | S(rot)=       0.01030035 Eh      6.46 kcal/mol|
|  sn=10 | S(rot)=       0.01020087 Eh      6.40 kcal/mol|
|  sn=11 | S(rot)=       0.01011088 Eh      6.34 kcal/mol|
|  sn=12 | S(rot)=       0.01002873 Eh      6.29 kcal/mol|
 --------------------------------------------------------

-------------------
GIBBS FREE ENERGY
-------------------

The Gibbs free energy is G = H - T*S

                             ****ORCA TERMINATED NORMALLY****
TOTAL RUN TIME: 0 days 0 hours 4 minutes 51 seconds 836 msec
