                         Program Version 5.0.4 -  RELEASE  -
|  1> # ORCA 5.0.4 - /users/bwb16179/postgrad/2024_06/pKa_Reviewer_Comments/CREST_Confs/butylamine/butylamine_deprot_aq_14.inp # write input file
|  2> # Basic Mode
|  3> #
|  4> ! Opt Freq wB97X Def2-SVP D4 SlowConv TightSCF Defgrid2 Def2/J RIJCOSX
|  5>
|  6> %PAL NPROCS 4 END
|  7>
|  8> %maxcore 4500
|  9>
| 10> %geom
| 11> Maxiter 150
| 12> END
| 13>
| 14> * xyzfile 0 1 butylamine_deprot_aq_14.xyz
| 15>
| 16>                          ****END OF INPUT****
 Total Charge           Charge          ....    0
 Multiplicity           Mult            ....    1
 Number of Electrons    NEL             ....   42
Dispersion correction           -0.001436361
FINAL SINGLE POINT ENERGY      -213.587555119921
Dispersion correction            ... Starting D4
Dispersion correction           -0.001437587
FINAL SINGLE POINT ENERGY      -213.588831026698
Dispersion correction            ... Starting D4
Dispersion correction           -0.001440880
FINAL SINGLE POINT ENERGY      -213.589145022942
Dispersion correction            ... Starting D4
FINAL SINGLE POINT ENERGY      -213.589462120827
FINAL SINGLE POINT ENERGY      -213.589558228779
FINAL SINGLE POINT ENERGY      -213.589628546959
Dispersion correction           -0.001456010
FINAL SINGLE POINT ENERGY      -213.589668966845
Dispersion correction            ... Starting D4
Dispersion correction           -0.001455908
FINAL SINGLE POINT ENERGY      -213.589672935594
Dispersion correction            ... Starting D4
                    ***********************HURRAY********************

CARTESIAN COORDINATES (ANGSTROEM)
---------------------------------
  C     -1.870105    0.721342    0.088941
  C     -1.108014   -0.403428   -0.606297
  H     -2.701184    1.086196   -0.534211
  H     -1.221992    1.586041    0.308092
  H     -2.295805    0.380782    1.047491
  C      0.007839   -1.025517    0.235655
  H     -0.679668   -0.034521   -1.555186
  H     -1.815992   -1.198901   -0.893143
  C      1.082997   -0.043039    0.691294
  H      0.493500   -1.823681   -0.350201
  H     -0.432383   -1.504238    1.129116
  N      1.715541    0.612894   -0.443119
  H      1.859010   -0.605046    1.237264
  H      0.645788    0.664063    1.429493
  H      2.498714    1.184010   -0.135366
  H      1.062043    1.250885   -0.893954

 Multiplicity           Mult            ....    1
 Number of Electrons    NEL             ....   42
 Basis Dimension        Dim             ....  125

ORBITAL ENERGIES
----------------

  NO   OCC          E(Eh)            E(eV)
   0   2.0000     -14.376899      -391.2153
   1   2.0000     -10.284651      -279.8596
   2   2.0000     -10.263215      -279.2763
   3   2.0000     -10.262033      -279.2441
   4   2.0000     -10.257808      -279.1291
   5   2.0000      -0.997889       -27.1539
   6   2.0000      -0.904765       -24.6199
   7   2.0000      -0.823822       -22.4173
   8   2.0000      -0.746903       -20.3243
   9   2.0000      -0.667523       -18.1642
  10   2.0000      -0.607714       -16.5367
  11   2.0000      -0.581240       -15.8163
  12   2.0000      -0.541315       -14.7299
  13   2.0000      -0.537305       -14.6208
  14   2.0000      -0.500202       -13.6112
  15   2.0000      -0.483096       -13.1457
  16   2.0000      -0.468561       -12.7502
  17   2.0000      -0.429342       -11.6830
  18   2.0000      -0.422330       -11.4922
  19   2.0000      -0.419231       -11.4078
  20   2.0000      -0.333165        -9.0659
  21   0.0000       0.133594         3.6353
  22   0.0000       0.171851         4.6763
  23   0.0000       0.180246         4.9047
  24   0.0000       0.186836         5.0841
  25   0.0000       0.210696         5.7333

MULLIKEN ATOMIC CHARGES
-----------------------
   0 C :   -0.049987
   1 C :   -0.083850
   2 H :    0.031565
   3 H :    0.019538
   4 H :    0.024925
   5 C :   -0.023410
   6 H :    0.021620
   7 H :    0.022951
   8 C :    0.051730
   9 H :    0.023236
  10 H :    0.011587
  11 N :   -0.253675
  12 H :    0.016655
  13 H :   -0.003048
  14 H :    0.099090
  15 H :    0.091074
Sum of atomic charges:   -0.0000000

LOEWDIN ATOMIC CHARGES
----------------------
   0 C :   -0.067478
   1 C :   -0.050741
   2 H :    0.027013
   3 H :    0.018060
   4 H :    0.024273
   5 C :   -0.046758
   6 H :    0.020154
   7 H :    0.025128
   8 C :    0.010134
   9 H :    0.026226
  10 H :    0.020754
  11 N :   -0.126604
  12 H :    0.020292
  13 H :   -0.004465
  14 H :    0.055353
  15 H :    0.048658

  Mayer bond orders larger than 0.100000
B(  0-C ,  1-C ) :   1.0721 B(  0-C ,  2-H ) :   0.9737 B(  0-C ,  3-H ) :   0.9731
B(  0-C ,  4-H ) :   0.9750 B(  1-C ,  5-C ) :   1.0731 B(  1-C ,  6-H ) :   0.9544
B(  1-C ,  7-H ) :   0.9564 B(  5-C ,  8-C ) :   1.0690 B(  5-C ,  9-H ) :   0.9465
B(  5-C , 10-H ) :   0.9518 B(  8-C , 11-N ) :   1.0598 B(  8-C , 12-H ) :   0.9549
B(  8-C , 13-H ) :   0.9472 B( 11-N , 14-H ) :   0.9709 B( 11-N , 15-H ) :   0.9729

Dispersion correction           -0.001455915
FINAL SINGLE POINT ENERGY      -213.589676303321

DIPOLE MOMENT
-------------
                                X             Y             Z
Electronic contribution:      2.13331      -0.46391      -0.54465
Nuclear contribution   :     -2.24244       0.84864       0.80753
                        -----------------------------------------
Total Dipole Moment    :     -0.10913       0.38473       0.26288
                        -----------------------------------------
Magnitude (a.u.)       :      0.47857
Magnitude (Debye)      :      1.21644

Dispersion correction in the Hessian             ... Starting D4

VIBRATIONAL FREQUENCIES
-----------------------

Scaling factor for frequencies =  1.000000000  (already applied!)

   0:         0.00 cm**-1
   1:         0.00 cm**-1
   2:         0.00 cm**-1
   3:         0.00 cm**-1
   4:         0.00 cm**-1
   5:         0.00 cm**-1
   6:        89.78 cm**-1
   7:       164.10 cm**-1
   8:       247.78 cm**-1
   9:       276.04 cm**-1
  10:       293.20 cm**-1
  11:       407.51 cm**-1
  12:       516.72 cm**-1
  13:       745.67 cm**-1
  14:       825.27 cm**-1
  15:       840.60 cm**-1
  16:       870.62 cm**-1
  17:       954.34 cm**-1
  18:       993.94 cm**-1
  19:      1052.12 cm**-1
  20:      1088.44 cm**-1
  21:      1146.61 cm**-1
  22:      1163.63 cm**-1
  23:      1209.54 cm**-1
  24:      1257.82 cm**-1
  25:      1301.64 cm**-1
  26:      1348.93 cm**-1
  27:      1364.92 cm**-1
  28:      1400.09 cm**-1
  29:      1416.11 cm**-1
  30:      1447.01 cm**-1
  31:      1455.07 cm**-1
  32:      1475.27 cm**-1
  33:      1476.34 cm**-1
  34:      1487.27 cm**-1
  35:      1505.06 cm**-1
  36:      1650.06 cm**-1
  37:      2985.99 cm**-1
  38:      3057.19 cm**-1
  39:      3061.82 cm**-1
  40:      3070.86 cm**-1
  41:      3105.55 cm**-1
  42:      3117.98 cm**-1
  43:      3127.50 cm**-1
  44:      3148.97 cm**-1
  45:      3158.88 cm**-1
  46:      3564.43 cm**-1
  47:      3646.01 cm**-1

IR SPECTRUM
-----------

 Mode   freq       eps      Int      T**2         TX        TY        TZ
       cm**-1   L/(mol*cm) km/mol    a.u.
----------------------------------------------------------------------------
  6:     89.78   0.000130    0.66  0.000452  ( 0.000865  0.013690 -0.016229)
  7:    164.10   0.002212   11.18  0.004207  ( 0.060242 -0.003548  0.023779)
  8:    247.78   0.005047   25.50  0.006356  (-0.073456  0.001627 -0.030945)
  9:    276.04   0.000165    0.84  0.000187  ( 0.012042  0.004949 -0.004178)
 10:    293.20   0.003838   19.39  0.004085  (-0.061526 -0.011312 -0.013081)
 11:    407.51   0.001015    5.13  0.000777  ( 0.026500  0.005995 -0.006264)
 12:    516.72   0.000816    4.12  0.000493  ( 0.019608 -0.001072 -0.010341)
 13:    745.67   0.000815    4.12  0.000341  ( 0.015375  0.004124 -0.009361)
 14:    825.27   0.000482    2.44  0.000182  (-0.002193 -0.007861 -0.010761)
 15:    840.60   0.025156  127.13  0.009339  (-0.050650  0.018176  0.080269)
 16:    870.62   0.000280    1.41  0.000100  ( 0.000709  0.009803  0.001926)
 17:    954.34   0.000310    1.57  0.000101  ( 0.009085  0.001318  0.004134)
 18:    993.94   0.001837    9.28  0.000577  (-0.017586  0.006220  0.015127)
 19:   1052.12   0.000563    2.85  0.000167  (-0.005088 -0.008123  0.008673)
 20:   1088.44   0.000203    1.02  0.000058  (-0.001532 -0.007211  0.001929)
 21:   1146.61   0.002401   12.13  0.000653  (-0.008642 -0.002141  0.023963)
 22:   1163.63   0.000883    4.46  0.000237  ( 0.005604  0.013773  0.003951)
 23:   1209.54   0.000476    2.41  0.000123  ( 0.007947 -0.002986 -0.007125)
 24:   1257.82   0.000360    1.82  0.000089  ( 0.003129 -0.008682 -0.002017)
 25:   1301.64   0.000095    0.48  0.000023  ( 0.002886  0.001968  0.003270)
 26:   1348.93   0.000942    4.76  0.000218  ( 0.006076  0.011498 -0.006982)
 27:   1364.92   0.000341    1.72  0.000078  (-0.007855  0.002530 -0.003135)
 28:   1400.09   0.000361    1.82  0.000080  ( 0.007917  0.000246 -0.004213)
 29:   1416.11   0.001257    6.35  0.000277  ( 0.012178 -0.008448 -0.007570)
 30:   1447.01   0.001181    5.97  0.000255  ( 0.008850  0.009928 -0.008820)
 31:   1455.07   0.001604    8.11  0.000344  ( 0.003559  0.016045 -0.008599)
 32:   1475.27   0.000489    2.47  0.000103  ( 0.004344  0.006226 -0.006763)
 33:   1476.34   0.001046    5.28  0.000221  (-0.003774 -0.012996  0.006156)
 34:   1487.27   0.001864    9.42  0.000391  (-0.014796 -0.004883 -0.012181)
 35:   1505.06   0.000909    4.59  0.000188  (-0.010646 -0.008665  0.000157)
 36:   1650.06   0.006357   32.13  0.001202  ( 0.009094  0.031510 -0.011255)
 37:   2985.99   0.014124   71.38  0.001476  ( 0.011041 -0.015196 -0.033515)
 38:   3057.19   0.005528   27.94  0.000564  (-0.009085  0.018769  0.011380)
 39:   3061.82   0.004816   24.34  0.000491  ( 0.003362  0.015030 -0.015927)
 40:   3070.86   0.003760   19.00  0.000382  ( 0.007125  0.007943  0.016377)
 41:   3105.55   0.007368   37.24  0.000740  ( 0.018881 -0.013861  0.013849)
 42:   3117.98   0.002826   14.28  0.000283  ( 0.003923  0.016352 -0.000153)
 43:   3127.50   0.006492   32.81  0.000648  (-0.015167  0.008255  0.018697)
 44:   3148.97   0.008042   40.64  0.000797  (-0.019059 -0.018628  0.009312)
 45:   3158.88   0.004929   24.91  0.000487  (-0.013630  0.002434 -0.017183)
 46:   3564.43   0.000080    0.41  0.000007  (-0.000754  0.002153  0.001348)
 47:   3646.01   0.000558    2.82  0.000048  ( 0.006097  0.001572  0.002845)

--------------------------
THERMOCHEMISTRY AT 298.15K
--------------------------

Temperature         ... 298.15 K
Pressure            ... 1.00 atm
Total Mass          ... 73.14 AMU

Throughout the following assumptions are being made:
  (1) The electronic state is orbitally nondegenerate
  (2) There are no thermally accessible electronically excited states
  (3) Hindered rotations indicated by low frequency modes are not
      treated as such but are treated as vibrations and this may
      cause some error
  (4) All equations used are the standard statistical mechanics
      equations for an ideal gas
  (5) All vibrations are strictly harmonic

freq.      89.78  E(vib)   ...       0.47
freq.     164.10  E(vib)   ...       0.39
freq.     247.78  E(vib)   ...       0.31
freq.     276.04  E(vib)   ...       0.28
freq.     293.20  E(vib)   ...       0.27
freq.     407.51  E(vib)   ...       0.19
freq.     516.72  E(vib)   ...       0.13
freq.     745.67  E(vib)   ...       0.06
freq.     825.27  E(vib)   ...       0.04
freq.     840.60  E(vib)   ...       0.04
freq.     870.62  E(vib)   ...       0.04
freq.     954.34  E(vib)   ...       0.03
freq.     993.94  E(vib)   ...       0.02
freq.    1052.12  E(vib)   ...       0.02
freq.    1088.44  E(vib)   ...       0.02
freq.    1146.61  E(vib)   ...       0.01
freq.    1163.63  E(vib)   ...       0.01
freq.    1209.54  E(vib)   ...       0.01
freq.    1257.82  E(vib)   ...       0.01
freq.    1301.64  E(vib)   ...       0.01
freq.    1348.93  E(vib)   ...       0.01
freq.    1364.92  E(vib)   ...       0.01
freq.    1400.09  E(vib)   ...       0.00
freq.    1416.11  E(vib)   ...       0.00
freq.    1447.01  E(vib)   ...       0.00
freq.    1455.07  E(vib)   ...       0.00
freq.    1475.27  E(vib)   ...       0.00
freq.    1476.34  E(vib)   ...       0.00
freq.    1487.27  E(vib)   ...       0.00
freq.    1505.06  E(vib)   ...       0.00
freq.    1650.06  E(vib)   ...       0.00
freq.    2985.99  E(vib)   ...       0.00
freq.    3057.19  E(vib)   ...       0.00
freq.    3061.82  E(vib)   ...       0.00
freq.    3070.86  E(vib)   ...       0.00
freq.    3105.55  E(vib)   ...       0.00
freq.    3117.98  E(vib)   ...       0.00
freq.    3127.50  E(vib)   ...       0.00
freq.    3148.97  E(vib)   ...       0.00
freq.    3158.88  E(vib)   ...       0.00
freq.    3564.43  E(vib)   ...       0.00
freq.    3646.01  E(vib)   ...       0.00

------------
INNER ENERGY
------------

The inner energy is: U= E(el) + E(ZPE) + E(vib) + E(rot) + E(trans)
    E(el)   - is the total energy from the electronic structure calculation
              = E(kin-el) + E(nuc-el) + E(el-el) + E(nuc-nuc)
    E(ZPE)  - the the zero temperature vibrational energy from the frequency calculation
    E(vib)  - the the finite temperature correction to E(ZPE) due to population
              of excited vibrational states
    E(rot)  - is the rotational thermal energy
    E(trans)- is the translational thermal energy

Summary of contributions to the inner energy U:
Electronic energy                ...   -213.58967630 Eh
Zero point energy                ...      0.15153617 Eh      95.09 kcal/mol
Thermal vibrational correction   ...      0.00383815 Eh       2.41 kcal/mol
Thermal rotational correction    ...      0.00141627 Eh       0.89 kcal/mol
Thermal translational correction ...      0.00141627 Eh       0.89 kcal/mol
-----------------------------------------------------------------------
Total thermal energy                   -213.43146944 Eh

Summary of corrections to the electronic energy:
(perhaps to be used in another calculation)
Total thermal correction                  0.00667070 Eh       4.19 kcal/mol
Non-thermal (ZPE) correction              0.15153617 Eh      95.09 kcal/mol
-----------------------------------------------------------------------
Total correction                          0.15820686 Eh      99.28 kcal/mol

--------
ENTHALPY
--------

The enthalpy is H = U + kB*T
                kB is Boltzmann's constant
Total free energy                 ...   -213.43146944 Eh
Thermal Enthalpy correction       ...      0.00094421 Eh       0.59 kcal/mol
-----------------------------------------------------------------------
Total Enthalpy                    ...   -213.43052523 Eh

Note: Only C1 symmetry has been detected, increase convergence thresholds
      if your molecule has a higher symmetry. Symmetry factor of 1.0 is
      used for the rotational entropy correction.

Note: Rotational entropy computed according to Herzberg
Infrared and Raman Spectra, Chapter V,1, Van Nostrand Reinhold, 1945
Point Group:  C1, Symmetry Number:   1
Rotational constants in cm-1:     0.260934     0.102116     0.091583

Vibrational entropy computed according to the QRRHO of S. Grimme
Chem.Eur.J. 2012 18 9955

-------
ENTROPY
-------

The entropy contributions are T*S = T*(S(el)+S(vib)+S(rot)+S(trans))
     S(el)   - electronic entropy
     S(vib)  - vibrational entropy
     S(rot)  - rotational entropy
     S(trans)- translational entropy
The entropies will be listed as multiplied by the temperature to get
units of energy

Electronic entropy                ...      0.00000000 Eh      0.00 kcal/mol
Vibrational entropy               ...      0.00643552 Eh      4.04 kcal/mol
Rotational entropy                ...      0.01235074 Eh      7.75 kcal/mol
Translational entropy             ...      0.01842822 Eh     11.56 kcal/mol
-----------------------------------------------------------------------
Final entropy term                ...      0.03721448 Eh     23.35 kcal/mol

In case the symmetry of your molecule has not been determined correctly
or in case you have a reason to use a different symmetry number we print
out the resulting rotational entropy values for sn=1,12 :
 --------------------------------------------------------
|  sn= 1 | S(rot)=       0.01235074 Eh      7.75 kcal/mol|
|  sn= 2 | S(rot)=       0.01169628 Eh      7.34 kcal/mol|
|  sn= 3 | S(rot)=       0.01131345 Eh      7.10 kcal/mol|
|  sn= 4 | S(rot)=       0.01104183 Eh      6.93 kcal/mol|
|  sn= 5 | S(rot)=       0.01083114 Eh      6.80 kcal/mol|
|  sn= 6 | S(rot)=       0.01065899 Eh      6.69 kcal/mol|
|  sn= 7 | S(rot)=       0.01051345 Eh      6.60 kcal/mol|
|  sn= 8 | S(rot)=       0.01038737 Eh      6.52 kcal/mol|
|  sn= 9 | S(rot)=       0.01027616 Eh      6.45 kcal/mol|
|  sn=10 | S(rot)=       0.01017668 Eh      6.39 kcal/mol|
|  sn=11 | S(rot)=       0.01008669 Eh      6.33 kcal/mol|
|  sn=12 | S(rot)=       0.01000454 Eh      6.28 kcal/mol|
 --------------------------------------------------------

-------------------
GIBBS FREE ENERGY
-------------------

The Gibbs free energy is G = H - T*S

                             ****ORCA TERMINATED NORMALLY****
TOTAL RUN TIME: 0 days 0 hours 4 minutes 42 seconds 57 msec
