                         Program Version 5.0.4 -  RELEASE  -
|  1> # ORCA 5.0.4 - /users/bwb16179/postgrad/2024_06/pKa_Reviewer_Comments/CREST_Confs/butylamine/butylamine_deprot_aq_9.inp # write input file
|  2> # Basic Mode
|  3> #
|  4> ! Opt Freq wB97X Def2-SVP D4 SlowConv TightSCF Defgrid2 Def2/J RIJCOSX
|  5>
|  6> %PAL NPROCS 4 END
|  7>
|  8> %maxcore 4500
|  9>
| 10> %geom
| 11> Maxiter 150
| 12> END
| 13>
| 14> * xyzfile 0 1 butylamine_deprot_aq_9.xyz
| 15>
| 16>                          ****END OF INPUT****
 Total Charge           Charge          ....    0
 Multiplicity           Mult            ....    1
 Number of Electrons    NEL             ....   42
Dispersion correction           -0.001394260
FINAL SINGLE POINT ENERGY      -213.587777207840
Dispersion correction            ... Starting D4
Dispersion correction           -0.001392062
FINAL SINGLE POINT ENERGY      -213.589023328934
Dispersion correction            ... Starting D4
Dispersion correction           -0.001392247
FINAL SINGLE POINT ENERGY      -213.589192051334
Dispersion correction            ... Starting D4
FINAL SINGLE POINT ENERGY      -213.589254576941
Dispersion correction           -0.001392990
FINAL SINGLE POINT ENERGY      -213.589260325346
Dispersion correction            ... Starting D4
Dispersion correction           -0.001392988
FINAL SINGLE POINT ENERGY      -213.589263493916
Dispersion correction            ... Starting D4
                    ***********************HURRAY********************

CARTESIAN COORDINATES (ANGSTROEM)
---------------------------------
  C     -2.141268    0.275546   -0.587681
  C     -1.376563   -0.448610    0.516708
  H     -3.179200   -0.083886   -0.658159
  H     -1.677159    0.129947   -1.575619
  H     -2.178570    1.361070   -0.398085
  C      0.049846    0.054774    0.733864
  H     -1.349005   -1.531264    0.298659
  H     -1.932091   -0.350374    1.464322
  C      0.990457   -0.176332   -0.442466
  H      0.493804   -0.435332    1.615842
  H      0.024224    1.136596    0.966750
  N      2.344518    0.229000   -0.100094
  H      0.587160    0.330188   -1.344868
  H      1.001899   -1.255608   -0.678066
  H      2.374939    1.232553    0.071814
  H      2.979662    0.054658   -0.875101

 Multiplicity           Mult            ....    1
 Number of Electrons    NEL             ....   42
 Basis Dimension        Dim             ....  125

ORBITAL ENERGIES
----------------

  NO   OCC          E(Eh)            E(eV)
   0   2.0000     -14.376025      -391.1915
   1   2.0000     -10.284510      -279.8558
   2   2.0000     -10.264114      -279.3008
   3   2.0000     -10.260134      -279.1924
   4   2.0000     -10.258289      -279.1422
   5   2.0000      -0.996809       -27.1246
   6   2.0000      -0.908257       -24.7149
   7   2.0000      -0.820257       -22.3203
   8   2.0000      -0.741872       -20.1874
   9   2.0000      -0.681337       -18.5401
  10   2.0000      -0.587749       -15.9935
  11   2.0000      -0.580635       -15.7999
  12   2.0000      -0.565007       -15.3746
  13   2.0000      -0.514319       -13.9953
  14   2.0000      -0.511169       -13.9096
  15   2.0000      -0.490157       -13.3379
  16   2.0000      -0.454786       -12.3754
  17   2.0000      -0.432001       -11.7553
  18   2.0000      -0.424765       -11.5584
  19   2.0000      -0.419869       -11.4252
  20   2.0000      -0.332046        -9.0354
  21   0.0000       0.145323         3.9544
  22   0.0000       0.158670         4.3176
  23   0.0000       0.177186         4.8215
  24   0.0000       0.183026         4.9804
  25   0.0000       0.215036         5.8514

MULLIKEN ATOMIC CHARGES
-----------------------
   0 C :   -0.052343
   1 C :   -0.048597
   2 H :    0.029668
   3 H :    0.026806
   4 H :    0.021703
   5 C :   -0.054164
   6 H :    0.016080
   7 H :    0.021510
   8 C :    0.063573
   9 H :    0.026521
  10 H :    0.003403
  11 N :   -0.246981
  12 H :   -0.004442
  13 H :    0.008677
  14 H :    0.092990
  15 H :    0.095595
Sum of atomic charges:   -0.0000000

LOEWDIN ATOMIC CHARGES
----------------------
   0 C :   -0.067306
   1 C :   -0.044932
   2 H :    0.026287
   3 H :    0.020298
   4 H :    0.023068
   5 C :   -0.048460
   6 H :    0.021215
   7 H :    0.024550
   8 C :    0.010380
   9 H :    0.026438
  10 H :    0.015639
  11 N :   -0.126140
  12 H :   -0.003522
  13 H :    0.017069
  14 H :    0.051427
  15 H :    0.053990

  Mayer bond orders larger than 0.100000
B(  0-C ,  1-C ) :   1.0745 B(  0-C ,  2-H ) :   0.9729 B(  0-C ,  3-H ) :   0.9755
B(  0-C ,  4-H ) :   0.9761 B(  1-C ,  5-C ) :   1.0711 B(  1-C ,  6-H ) :   0.9547
B(  1-C ,  7-H ) :   0.9556 B(  5-C ,  8-C ) :   1.0605 B(  5-C ,  9-H ) :   0.9493
B(  5-C , 10-H ) :   0.9519 B(  8-C , 11-N ) :   1.0670 B(  8-C , 12-H ) :   0.9510
B(  8-C , 13-H ) :   0.9515 B( 11-N , 14-H ) :   0.9748 B( 11-N , 15-H ) :   0.9716

Dispersion correction           -0.001392912
FINAL SINGLE POINT ENERGY      -213.589264421883

DIPOLE MOMENT
-------------
                                X             Y             Z
Electronic contribution:      2.61152      -0.24686       0.65715
Nuclear contribution   :     -2.69389       0.51641      -1.06180
                        -----------------------------------------
Total Dipole Moment    :     -0.08238       0.26955      -0.40465
                        -----------------------------------------
Magnitude (a.u.)       :      0.49314
Magnitude (Debye)      :      1.25345

Dispersion correction in the Hessian             ... Starting D4

VIBRATIONAL FREQUENCIES
-----------------------

Scaling factor for frequencies =  1.000000000  (already applied!)

   0:         0.00 cm**-1
   1:         0.00 cm**-1
   2:         0.00 cm**-1
   3:         0.00 cm**-1
   4:         0.00 cm**-1
   5:         0.00 cm**-1
   6:        70.77 cm**-1
   7:       132.90 cm**-1
   8:       215.54 cm**-1
   9:       240.47 cm**-1
  10:       299.28 cm**-1
  11:       355.80 cm**-1
  12:       495.78 cm**-1
  13:       754.25 cm**-1
  14:       799.16 cm**-1
  15:       839.84 cm**-1
  16:       901.67 cm**-1
  17:       960.10 cm**-1
  18:       984.78 cm**-1
  19:      1070.10 cm**-1
  20:      1109.18 cm**-1
  21:      1143.61 cm**-1
  22:      1154.83 cm**-1
  23:      1219.48 cm**-1
  24:      1273.86 cm**-1
  25:      1298.16 cm**-1
  26:      1333.76 cm**-1
  27:      1354.09 cm**-1
  28:      1386.34 cm**-1
  29:      1418.66 cm**-1
  30:      1453.44 cm**-1
  31:      1467.17 cm**-1
  32:      1473.02 cm**-1
  33:      1479.75 cm**-1
  34:      1488.07 cm**-1
  35:      1504.78 cm**-1
  36:      1643.53 cm**-1
  37:      2997.17 cm**-1
  38:      3048.05 cm**-1
  39:      3061.90 cm**-1
  40:      3064.72 cm**-1
  41:      3085.27 cm**-1
  42:      3116.44 cm**-1
  43:      3126.04 cm**-1
  44:      3155.04 cm**-1
  45:      3164.66 cm**-1
  46:      3559.64 cm**-1
  47:      3643.95 cm**-1

IR SPECTRUM
-----------

 Mode   freq       eps      Int      T**2         TX        TY        TZ
       cm**-1   L/(mol*cm) km/mol    a.u.
----------------------------------------------------------------------------
  6:     70.77   0.000952    4.81  0.004196  (-0.003664 -0.055713 -0.032843)
  7:    132.90   0.000210    1.06  0.000494  ( 0.022152 -0.001574 -0.000887)
  8:    215.54   0.001085    5.48  0.001570  (-0.013427  0.027003  0.025704)
  9:    240.47   0.005795   29.29  0.007520  (-0.049184  0.054997  0.045568)
 10:    299.28   0.001281    6.47  0.001336  (-0.025136  0.021171  0.015983)
 11:    355.80   0.001623    8.20  0.001423  ( 0.034259 -0.012426 -0.009754)
 12:    495.78   0.000700    3.54  0.000441  (-0.018560  0.009791 -0.000618)
 13:    754.25   0.000830    4.20  0.000344  (-0.015848  0.009426 -0.001892)
 14:    799.16   0.002967   14.99  0.001159  (-0.016311  0.000721 -0.029866)
 15:    839.84   0.022180  112.09  0.008242  ( 0.068527 -0.016516  0.057209)
 16:    901.67   0.000923    4.67  0.000320  (-0.006289  0.008070 -0.014660)
 17:    960.10   0.000497    2.51  0.000162  (-0.002631  0.007288 -0.010081)
 18:    984.78   0.002764   13.97  0.000876  (-0.024949  0.002703 -0.015685)
 19:   1070.10   0.000103    0.52  0.000030  (-0.003119  0.002362 -0.003829)
 20:   1109.18   0.000554    2.80  0.000156  (-0.012299 -0.000550  0.002046)
 21:   1143.61   0.002936   14.84  0.000801  (-0.027581 -0.001884 -0.006068)
 22:   1154.83   0.001198    6.05  0.000324  ( 0.002843 -0.011288  0.013715)
 23:   1219.48   0.000311    1.57  0.000080  (-0.008112 -0.002912 -0.002327)
 24:   1273.86   0.000026    0.13  0.000006  ( 0.001005 -0.001303  0.001898)
 25:   1298.16   0.000028    0.14  0.000007  ( 0.000004 -0.000597  0.002506)
 26:   1333.76   0.000534    2.70  0.000125  (-0.008822 -0.003605  0.005846)
 27:   1354.09   0.000319    1.61  0.000073  (-0.008498 -0.000908 -0.000642)
 28:   1386.34   0.000002    0.01  0.000001  ( 0.000492  0.000413 -0.000346)
 29:   1418.66   0.001403    7.09  0.000309  (-0.012601  0.007719 -0.009495)
 30:   1453.44   0.002017   10.19  0.000433  ( 0.019642  0.006491 -0.002262)
 31:   1467.17   0.000187    0.94  0.000040  (-0.003550 -0.004970  0.001558)
 32:   1473.02   0.000251    1.27  0.000053  ( 0.002532  0.006837 -0.000084)
 33:   1479.75   0.001911    9.66  0.000403  ( 0.001570  0.013756  0.014535)
 34:   1488.07   0.001162    5.87  0.000244  (-0.012738 -0.008560  0.002843)
 35:   1504.78   0.000319    1.61  0.000066  (-0.007428  0.000848  0.003207)
 36:   1643.53   0.005630   28.45  0.001069  (-0.020798 -0.022950  0.010476)
 37:   2997.17   0.014158   71.55  0.001474  ( 0.020384 -0.002433  0.032445)
 38:   3048.05   0.004772   24.12  0.000489  ( 0.006338  0.016313  0.013502)
 39:   3061.90   0.007031   35.53  0.000717  ( 0.005491 -0.019438  0.017566)
 40:   3064.72   0.003053   15.43  0.000311  (-0.013737 -0.010958  0.001462)
 41:   3085.27   0.006487   32.78  0.000656  (-0.001583  0.025381  0.003078)
 42:   3116.44   0.004172   21.08  0.000418  ( 0.007457 -0.009866 -0.016274)
 43:   3126.04   0.007161   36.19  0.000715  (-0.008110  0.021921 -0.012982)
 44:   3155.04   0.006417   32.43  0.000635  ( 0.003267  0.020909  0.013670)
 45:   3164.66   0.005801   29.32  0.000572  ( 0.020092  0.002011 -0.012819)
 46:   3559.64   0.000105    0.53  0.000009  (-0.000701  0.001129 -0.002728)
 47:   3643.95   0.000322    1.63  0.000028  (-0.001748  0.003288  0.003707)

--------------------------
THERMOCHEMISTRY AT 298.15K
--------------------------

Temperature         ... 298.15 K
Pressure            ... 1.00 atm
Total Mass          ... 73.14 AMU

Throughout the following assumptions are being made:
  (1) The electronic state is orbitally nondegenerate
  (2) There are no thermally accessible electronically excited states
  (3) Hindered rotations indicated by low frequency modes are not
      treated as such but are treated as vibrations and this may
      cause some error
  (4) All equations used are the standard statistical mechanics
      equations for an ideal gas
  (5) All vibrations are strictly harmonic

freq.      70.77  E(vib)   ...       0.50
freq.     132.90  E(vib)   ...       0.42
freq.     215.54  E(vib)   ...       0.34
freq.     240.47  E(vib)   ...       0.31
freq.     299.28  E(vib)   ...       0.26
freq.     355.80  E(vib)   ...       0.22
freq.     495.78  E(vib)   ...       0.14
freq.     754.25  E(vib)   ...       0.06
freq.     799.16  E(vib)   ...       0.05
freq.     839.84  E(vib)   ...       0.04
freq.     901.67  E(vib)   ...       0.03
freq.     960.10  E(vib)   ...       0.03
freq.     984.78  E(vib)   ...       0.02
freq.    1070.10  E(vib)   ...       0.02
freq.    1109.18  E(vib)   ...       0.02
freq.    1143.61  E(vib)   ...       0.01
freq.    1154.83  E(vib)   ...       0.01
freq.    1219.48  E(vib)   ...       0.01
freq.    1273.86  E(vib)   ...       0.01
freq.    1298.16  E(vib)   ...       0.01
freq.    1333.76  E(vib)   ...       0.01
freq.    1354.09  E(vib)   ...       0.01
freq.    1386.34  E(vib)   ...       0.00
freq.    1418.66  E(vib)   ...       0.00
freq.    1453.44  E(vib)   ...       0.00
freq.    1467.17  E(vib)   ...       0.00
freq.    1473.02  E(vib)   ...       0.00
freq.    1479.75  E(vib)   ...       0.00
freq.    1488.07  E(vib)   ...       0.00
freq.    1504.78  E(vib)   ...       0.00
freq.    1643.53  E(vib)   ...       0.00
freq.    2997.17  E(vib)   ...       0.00
freq.    3048.05  E(vib)   ...       0.00
freq.    3061.90  E(vib)   ...       0.00
freq.    3064.72  E(vib)   ...       0.00
freq.    3085.27  E(vib)   ...       0.00
freq.    3116.44  E(vib)   ...       0.00
freq.    3126.04  E(vib)   ...       0.00
freq.    3155.04  E(vib)   ...       0.00
freq.    3164.66  E(vib)   ...       0.00
freq.    3559.64  E(vib)   ...       0.00
freq.    3643.95  E(vib)   ...       0.00

------------
INNER ENERGY
------------

The inner energy is: U= E(el) + E(ZPE) + E(vib) + E(rot) + E(trans)
    E(el)   - is the total energy from the electronic structure calculation
              = E(kin-el) + E(nuc-el) + E(el-el) + E(nuc-nuc)
    E(ZPE)  - the the zero temperature vibrational energy from the frequency calculation
    E(vib)  - the the finite temperature correction to E(ZPE) due to population
              of excited vibrational states
    E(rot)  - is the rotational thermal energy
    E(trans)- is the translational thermal energy

Summary of contributions to the inner energy U:
Electronic energy                ...   -213.58926442 Eh
Zero point energy                ...      0.15114514 Eh      94.84 kcal/mol
Thermal vibrational correction   ...      0.00408154 Eh       2.56 kcal/mol
Thermal rotational correction    ...      0.00141627 Eh       0.89 kcal/mol
Thermal translational correction ...      0.00141627 Eh       0.89 kcal/mol
-----------------------------------------------------------------------
Total thermal energy                   -213.43120520 Eh

Summary of corrections to the electronic energy:
(perhaps to be used in another calculation)
Total thermal correction                  0.00691409 Eh       4.34 kcal/mol
Non-thermal (ZPE) correction              0.15114514 Eh      94.84 kcal/mol
-----------------------------------------------------------------------
Total correction                          0.15805923 Eh      99.18 kcal/mol

--------
ENTHALPY
--------

The enthalpy is H = U + kB*T
                kB is Boltzmann's constant
Total free energy                 ...   -213.43120520 Eh
Thermal Enthalpy correction       ...      0.00094421 Eh       0.59 kcal/mol
-----------------------------------------------------------------------
Total Enthalpy                    ...   -213.43026099 Eh

Note: Only C1 symmetry has been detected, increase convergence thresholds
      if your molecule has a higher symmetry. Symmetry factor of 1.0 is
      used for the rotational entropy correction.

Note: Rotational entropy computed according to Herzberg
Infrared and Raman Spectra, Chapter V,1, Van Nostrand Reinhold, 1945
Point Group:  C1, Symmetry Number:   1
Rotational constants in cm-1:     0.405634     0.077076     0.071415

Vibrational entropy computed according to the QRRHO of S. Grimme
Chem.Eur.J. 2012 18 9955

-------
ENTROPY
-------

The entropy contributions are T*S = T*(S(el)+S(vib)+S(rot)+S(trans))
     S(el)   - electronic entropy
     S(vib)  - vibrational entropy
     S(rot)  - rotational entropy
     S(trans)- translational entropy
The entropies will be listed as multiplied by the temperature to get
units of energy

Electronic entropy                ...      0.00000000 Eh      0.00 kcal/mol
Vibrational entropy               ...      0.00699810 Eh      4.39 kcal/mol
Rotational entropy                ...      0.01239269 Eh      7.78 kcal/mol
Translational entropy             ...      0.01842822 Eh     11.56 kcal/mol
-----------------------------------------------------------------------
Final entropy term                ...      0.03781901 Eh     23.73 kcal/mol

In case the symmetry of your molecule has not been determined correctly
or in case you have a reason to use a different symmetry number we print
out the resulting rotational entropy values for sn=1,12 :
 --------------------------------------------------------
|  sn= 1 | S(rot)=       0.01239269 Eh      7.78 kcal/mol|
|  sn= 2 | S(rot)=       0.01173823 Eh      7.37 kcal/mol|
|  sn= 3 | S(rot)=       0.01135540 Eh      7.13 kcal/mol|
|  sn= 4 | S(rot)=       0.01108378 Eh      6.96 kcal/mol|
|  sn= 5 | S(rot)=       0.01087309 Eh      6.82 kcal/mol|
|  sn= 6 | S(rot)=       0.01070095 Eh      6.71 kcal/mol|
|  sn= 7 | S(rot)=       0.01055540 Eh      6.62 kcal/mol|
|  sn= 8 | S(rot)=       0.01042932 Eh      6.54 kcal/mol|
|  sn= 9 | S(rot)=       0.01031811 Eh      6.47 kcal/mol|
|  sn=10 | S(rot)=       0.01021863 Eh      6.41 kcal/mol|
|  sn=11 | S(rot)=       0.01012864 Eh      6.36 kcal/mol|
|  sn=12 | S(rot)=       0.01004649 Eh      6.30 kcal/mol|
 --------------------------------------------------------

-------------------
GIBBS FREE ENERGY
-------------------

The Gibbs free energy is G = H - T*S

                             ****ORCA TERMINATED NORMALLY****
TOTAL RUN TIME: 0 days 0 hours 3 minutes 54 seconds 546 msec
