                         Program Version 5.0.4 -  RELEASE  -
|  1> # ORCA 5.0.4 - /users/bwb16179/postgrad/2024_06/pKa_Reviewer_Comments/CREST_Confs/butylamine/butylamine_deprot_aq_0.inp # write input file
|  2> # Basic Mode
|  3> #
|  4> ! Opt Freq wB97X Def2-SVP D4 SlowConv TightSCF Defgrid2 Def2/J RIJCOSX
|  5>
|  6> %PAL NPROCS 4 END
|  7>
|  8> %maxcore 4500
|  9>
| 10> %geom
| 11> Maxiter 150
| 12> END
| 13>
| 14> * xyzfile 0 1 butylamine_deprot_aq_0.xyz
| 15>
| 16>                          ****END OF INPUT****
 Total Charge           Charge          ....    0
 Multiplicity           Mult            ....    1
 Number of Electrons    NEL             ....   42
Dispersion correction           -0.001349147
FINAL SINGLE POINT ENERGY      -213.589405828214
Dispersion correction            ... Starting D4
Dispersion correction           -0.001346070
FINAL SINGLE POINT ENERGY      -213.590707237176
Dispersion correction            ... Starting D4
Dispersion correction           -0.001345843
FINAL SINGLE POINT ENERGY      -213.590850222664
Dispersion correction            ... Starting D4
Dispersion correction           -0.001346082
FINAL SINGLE POINT ENERGY      -213.590891980290
Dispersion correction            ... Starting D4
                    ***********************HURRAY********************

CARTESIAN COORDINATES (ANGSTROEM)
---------------------------------
  C     -2.564253    0.318796    0.000032
  C     -1.287763   -0.513969    0.000133
  H     -3.464497   -0.314512    0.000253
  H     -2.613750    0.968966   -0.888599
  H     -2.613612    0.969393    0.888358
  C     -0.017289    0.329780   -0.000014
  H     -1.279345   -1.180416   -0.880973
  H     -1.279320   -1.180177    0.881419
  C      1.269103   -0.495724    0.000049
  H     -0.016943    0.996207    0.883420
  H     -0.017009    0.995970   -0.883627
  N      2.508051    0.261761   -0.000068
  H      1.270672   -1.164332   -0.879290
  H      1.270721   -1.164112    0.879554
  H      2.545759    0.873326    0.813356
  H      2.545592    0.873358   -0.813478

 Multiplicity           Mult            ....    1
 Number of Electrons    NEL             ....   42
 Basis Dimension        Dim             ....  125

ORBITAL ENERGIES
----------------

  NO   OCC          E(Eh)            E(eV)
   0   2.0000     -14.376216      -391.1967
   1   2.0000     -10.285042      -279.8702
   2   2.0000     -10.266706      -279.3713
   3   2.0000     -10.262299      -279.2513
   4   2.0000     -10.261660      -279.2340
   5   2.0000      -0.997878       -27.1536
   6   2.0000      -0.911064       -24.7913
   7   2.0000      -0.824224       -22.4283
   8   2.0000      -0.732756       -19.9393
   9   2.0000      -0.695734       -18.9319
  10   2.0000      -0.610930       -16.6243
  11   2.0000      -0.566055       -15.4031
  12   2.0000      -0.548967       -14.9382
  13   2.0000      -0.538278       -14.6473
  14   2.0000      -0.499739       -13.5986
  15   2.0000      -0.480219       -13.0674
  16   2.0000      -0.460040       -12.5183
  17   2.0000      -0.442981       -12.0541
  18   2.0000      -0.434638       -11.8271
  19   2.0000      -0.422040       -11.4843
  20   2.0000      -0.331683        -9.0255
  21   0.0000       0.142897         3.8884
  22   0.0000       0.158247         4.3061
  23   0.0000       0.173093         4.7101
  24   0.0000       0.177928         4.8417
  25   0.0000       0.208781         5.6812

MULLIKEN ATOMIC CHARGES
-----------------------
   0 C :   -0.022990
   1 C :   -0.076228
   2 H :    0.029745
   3 H :    0.022834
   4 H :    0.022831
   5 C :   -0.066265
   6 H :    0.018313
   7 H :    0.018313
   8 C :    0.071698
   9 H :    0.001886
  10 H :    0.001889
  11 N :   -0.237723
  12 H :    0.015440
  13 H :    0.015439
  14 H :    0.092410
  15 H :    0.092408
Sum of atomic charges:   -0.0000000

LOEWDIN ATOMIC CHARGES
----------------------
   0 C :   -0.063393
   1 C :   -0.046484
   2 H :    0.026045
   3 H :    0.023388
   4 H :    0.023387
   5 C :   -0.063677
   6 H :    0.021574
   7 H :    0.021573
   8 C :    0.006673
   9 H :    0.014956
  10 H :    0.014957
  11 N :   -0.117772
  12 H :    0.018361
  13 H :    0.018363
  14 H :    0.051025
  15 H :    0.051024

  Mayer bond orders larger than 0.100000
B(  0-C ,  1-C ) :   1.0836 B(  0-C ,  2-H ) :   0.9734 B(  0-C ,  3-H ) :   0.9752
B(  0-C ,  4-H ) :   0.9752 B(  1-C ,  5-C ) :   1.0484 B(  1-C ,  6-H ) :   0.9560
B(  1-C ,  7-H ) :   0.9560 B(  5-C ,  8-C ) :   1.0436 B(  5-C ,  9-H ) :   0.9492
B(  5-C , 10-H ) :   0.9492 B(  8-C , 11-N ) :   1.0945 B(  8-C , 12-H ) :   0.9587
B(  8-C , 13-H ) :   0.9587 B( 11-N , 14-H ) :   0.9807 B( 11-N , 15-H ) :   0.9807

Dispersion correction           -0.001346176
FINAL SINGLE POINT ENERGY      -213.590893917560

DIPOLE MOMENT
-------------
                                X             Y             Z
Electronic contribution:      3.05790      -0.27261      -0.00005
Nuclear contribution   :     -3.44298       0.63231       0.00011
                        -----------------------------------------
Total Dipole Moment    :     -0.38508       0.35970       0.00006
                        -----------------------------------------
Magnitude (a.u.)       :      0.52694
Magnitude (Debye)      :      1.33938

Dispersion correction in the Hessian             ... Starting D4

VIBRATIONAL FREQUENCIES
-----------------------

Scaling factor for frequencies =  1.000000000  (already applied!)

   0:         0.00 cm**-1
   1:         0.00 cm**-1
   2:         0.00 cm**-1
   3:         0.00 cm**-1
   4:         0.00 cm**-1
   5:         0.00 cm**-1
   6:       126.67 cm**-1
   7:       147.78 cm**-1
   8:       188.41 cm**-1
   9:       284.59 cm**-1
  10:       302.31 cm**-1
  11:       402.08 cm**-1
  12:       439.19 cm**-1
  13:       750.43 cm**-1
  14:       796.77 cm**-1
  15:       853.74 cm**-1
  16:       928.63 cm**-1
  17:       932.18 cm**-1
  18:      1045.76 cm**-1
  19:      1052.34 cm**-1
  20:      1097.96 cm**-1
  21:      1135.78 cm**-1
  22:      1165.97 cm**-1
  23:      1227.78 cm**-1
  24:      1284.12 cm**-1
  25:      1305.21 cm**-1
  26:      1327.55 cm**-1
  27:      1381.09 cm**-1
  28:      1389.75 cm**-1
  29:      1415.40 cm**-1
  30:      1435.95 cm**-1
  31:      1470.53 cm**-1
  32:      1473.32 cm**-1
  33:      1481.40 cm**-1
  34:      1484.13 cm**-1
  35:      1493.11 cm**-1
  36:      1651.15 cm**-1
  37:      3036.62 cm**-1
  38:      3054.21 cm**-1
  39:      3057.82 cm**-1
  40:      3059.95 cm**-1
  41:      3084.01 cm**-1
  42:      3106.54 cm**-1
  43:      3117.39 cm**-1
  44:      3153.18 cm**-1
  45:      3162.25 cm**-1
  46:      3553.75 cm**-1
  47:      3636.12 cm**-1

IR SPECTRUM
-----------

 Mode   freq       eps      Int      T**2         TX        TY        TZ
       cm**-1   L/(mol*cm) km/mol    a.u.
----------------------------------------------------------------------------
  6:    126.67   0.000483    2.44  0.001191  (-0.000004 -0.000001 -0.034508)
  7:    147.78   0.000165    0.83  0.000348  (-0.000003  0.000001 -0.018668)
  8:    188.41   0.000451    2.28  0.000748  ( 0.022658  0.015307 -0.000013)
  9:    284.59   0.000153    0.77  0.000168  ( 0.000007  0.000005  0.012954)
 10:    302.31   0.009352   47.26  0.009654  (-0.000008 -0.000002 -0.098254)
 11:    402.08   0.000088    0.44  0.000068  ( 0.005158  0.006450 -0.000000)
 12:    439.19   0.001293    6.53  0.000919  (-0.026840 -0.014076  0.000001)
 13:    750.43   0.000715    3.62  0.000298  (-0.000003 -0.000003 -0.017249)
 14:    796.77   0.000094    0.47  0.000037  (-0.000003  0.000001  0.006061)
 15:    853.74   0.035312  178.45  0.012908  (-0.113026  0.011521  0.000008)
 16:    928.63   0.000001    0.01  0.000000  ( 0.000047  0.000002  0.000652)
 17:    932.18   0.004664   23.57  0.001561  (-0.039492 -0.001254  0.000003)
 18:   1045.76   0.002225   11.24  0.000664  (-0.022170  0.013128 -0.000006)
 19:   1052.34   0.000113    0.57  0.000034  (-0.000029  0.000014  0.005793)
 20:   1097.96   0.000493    2.49  0.000140  (-0.011830  0.000542  0.000001)
 21:   1135.78   0.003758   18.99  0.001033  (-0.031817  0.004506 -0.000000)
 22:   1165.97   0.001663    8.40  0.000445  ( 0.012031  0.017330  0.000001)
 23:   1227.78   0.000007    0.03  0.000002  (-0.000002  0.000001 -0.001314)
 24:   1284.12   0.000796    4.02  0.000193  (-0.013900 -0.000436 -0.000000)
 25:   1305.21   0.000000    0.00  0.000000  (-0.000007 -0.000001  0.000313)
 26:   1327.55   0.000087    0.44  0.000020  (-0.000001  0.000001  0.004512)
 27:   1381.09   0.000903    4.56  0.000204  (-0.014285 -0.000068 -0.000005)
 28:   1389.75   0.000202    1.02  0.000045  ( 0.000011 -0.000002 -0.006742)
 29:   1415.40   0.000670    3.38  0.000148  ( 0.007197  0.009790 -0.000003)
 30:   1435.95   0.002273   11.49  0.000494  (-0.022200 -0.001028 -0.000001)
 31:   1470.53   0.000028    0.14  0.000006  ( 0.002397 -0.000344 -0.000003)
 32:   1473.32   0.000074    0.37  0.000016  (-0.003548 -0.001725 -0.000010)
 33:   1481.40   0.001635    8.26  0.000344  (-0.000009 -0.000010 -0.018558)
 34:   1484.13   0.000190    0.96  0.000040  ( 0.006148  0.001456 -0.000035)
 35:   1493.11   0.001057    5.34  0.000221  (-0.000592 -0.014848  0.000008)
 36:   1651.15   0.004334   21.90  0.000819  (-0.006778 -0.027805  0.000001)
 37:   3036.62   0.004456   22.52  0.000458  (-0.004034 -0.021017  0.000005)
 38:   3054.21   0.000190    0.96  0.000019  ( 0.004382  0.000508  0.000002)
 39:   3057.82   0.018136   91.65  0.001851  (-0.009505  0.041958 -0.000003)
 40:   3059.95   0.003265   16.50  0.000333  ( 0.015721  0.009267 -0.000001)
 41:   3084.01   0.000834    4.21  0.000084  ( 0.000000  0.000006  0.009186)
 42:   3106.54   0.000235    1.19  0.000024  (-0.000001  0.000002  0.004855)
 43:   3117.39   0.013844   69.96  0.001386  ( 0.000002  0.000004  0.037227)
 44:   3153.18   0.007459   37.70  0.000738  ( 0.000004  0.000009  0.027170)
 45:   3162.25   0.005067   25.61  0.000500  (-0.014055 -0.017392  0.000009)
 46:   3553.75   0.000025    0.12  0.000002  (-0.001205  0.000845  0.000001)
 47:   3636.12   0.000221    1.12  0.000019  ( 0.000001 -0.000000  0.004360)

--------------------------
THERMOCHEMISTRY AT 298.15K
--------------------------

Temperature         ... 298.15 K
Pressure            ... 1.00 atm
Total Mass          ... 73.14 AMU

Throughout the following assumptions are being made:
  (1) The electronic state is orbitally nondegenerate
  (2) There are no thermally accessible electronically excited states
  (3) Hindered rotations indicated by low frequency modes are not
      treated as such but are treated as vibrations and this may
      cause some error
  (4) All equations used are the standard statistical mechanics
      equations for an ideal gas
  (5) All vibrations are strictly harmonic

freq.     126.67  E(vib)   ...       0.43
freq.     147.78  E(vib)   ...       0.41
freq.     188.41  E(vib)   ...       0.36
freq.     284.59  E(vib)   ...       0.28
freq.     302.31  E(vib)   ...       0.26
freq.     402.08  E(vib)   ...       0.19
freq.     439.19  E(vib)   ...       0.17
freq.     750.43  E(vib)   ...       0.06
freq.     796.77  E(vib)   ...       0.05
freq.     853.74  E(vib)   ...       0.04
freq.     928.63  E(vib)   ...       0.03
freq.     932.18  E(vib)   ...       0.03
freq.    1045.76  E(vib)   ...       0.02
freq.    1052.34  E(vib)   ...       0.02
freq.    1097.96  E(vib)   ...       0.02
freq.    1135.78  E(vib)   ...       0.01
freq.    1165.97  E(vib)   ...       0.01
freq.    1227.78  E(vib)   ...       0.01
freq.    1284.12  E(vib)   ...       0.01
freq.    1305.21  E(vib)   ...       0.01
freq.    1327.55  E(vib)   ...       0.01
freq.    1381.09  E(vib)   ...       0.01
freq.    1389.75  E(vib)   ...       0.00
freq.    1415.40  E(vib)   ...       0.00
freq.    1435.95  E(vib)   ...       0.00
freq.    1470.53  E(vib)   ...       0.00
freq.    1473.32  E(vib)   ...       0.00
freq.    1481.40  E(vib)   ...       0.00
freq.    1484.13  E(vib)   ...       0.00
freq.    1493.11  E(vib)   ...       0.00
freq.    1651.15  E(vib)   ...       0.00
freq.    3036.62  E(vib)   ...       0.00
freq.    3054.21  E(vib)   ...       0.00
freq.    3057.82  E(vib)   ...       0.00
freq.    3059.95  E(vib)   ...       0.00
freq.    3084.01  E(vib)   ...       0.00
freq.    3106.54  E(vib)   ...       0.00
freq.    3117.39  E(vib)   ...       0.00
freq.    3153.18  E(vib)   ...       0.00
freq.    3162.25  E(vib)   ...       0.00
freq.    3553.75  E(vib)   ...       0.00
freq.    3636.12  E(vib)   ...       0.00

------------
INNER ENERGY
------------

The inner energy is: U= E(el) + E(ZPE) + E(vib) + E(rot) + E(trans)
    E(el)   - is the total energy from the electronic structure calculation
              = E(kin-el) + E(nuc-el) + E(el-el) + E(nuc-nuc)
    E(ZPE)  - the the zero temperature vibrational energy from the frequency calculation
    E(vib)  - the the finite temperature correction to E(ZPE) due to population
              of excited vibrational states
    E(rot)  - is the rotational thermal energy
    E(trans)- is the translational thermal energy

Summary of contributions to the inner energy U:
Electronic energy                ...   -213.59089392 Eh
Zero point energy                ...      0.15148206 Eh      95.06 kcal/mol
Thermal vibrational correction   ...      0.00391593 Eh       2.46 kcal/mol
Thermal rotational correction    ...      0.00141627 Eh       0.89 kcal/mol
Thermal translational correction ...      0.00141627 Eh       0.89 kcal/mol
-----------------------------------------------------------------------
Total thermal energy                   -213.43266338 Eh

Summary of corrections to the electronic energy:
(perhaps to be used in another calculation)
Total thermal correction                  0.00674847 Eh       4.23 kcal/mol
Non-thermal (ZPE) correction              0.15148206 Eh      95.06 kcal/mol
-----------------------------------------------------------------------
Total correction                          0.15823054 Eh      99.29 kcal/mol

--------
ENTHALPY
--------

The enthalpy is H = U + kB*T
                kB is Boltzmann's constant
Total free energy                 ...   -213.43266338 Eh
Thermal Enthalpy correction       ...      0.00094421 Eh       0.59 kcal/mol
-----------------------------------------------------------------------
Total Enthalpy                    ...   -213.43171917 Eh

Note: Only C1 symmetry has been detected, increase convergence thresholds
      if your molecule has a higher symmetry. Symmetry factor of 1.0 is
      used for the rotational entropy correction.

Note: Rotational entropy computed according to Herzberg
Infrared and Raman Spectra, Chapter V,1, Van Nostrand Reinhold, 1945
Point Group:  C1, Symmetry Number:   1
Rotational constants in cm-1:     0.595532     0.064970     0.061857

Vibrational entropy computed according to the QRRHO of S. Grimme
Chem.Eur.J. 2012 18 9955

-------
ENTROPY
-------

The entropy contributions are T*S = T*(S(el)+S(vib)+S(rot)+S(trans))
     S(el)   - electronic entropy
     S(vib)  - vibrational entropy
     S(rot)  - rotational entropy
     S(trans)- translational entropy
The entropies will be listed as multiplied by the temperature to get
units of energy

Electronic entropy                ...      0.00000000 Eh      0.00 kcal/mol
Vibrational entropy               ...      0.00662956 Eh      4.16 kcal/mol
Rotational entropy                ...      0.01235990 Eh      7.76 kcal/mol
Translational entropy             ...      0.01842822 Eh     11.56 kcal/mol
-----------------------------------------------------------------------
Final entropy term                ...      0.03741768 Eh     23.48 kcal/mol

In case the symmetry of your molecule has not been determined correctly
or in case you have a reason to use a different symmetry number we print
out the resulting rotational entropy values for sn=1,12 :
 --------------------------------------------------------
|  sn= 1 | S(rot)=       0.01235990 Eh      7.76 kcal/mol|
|  sn= 2 | S(rot)=       0.01170544 Eh      7.35 kcal/mol|
|  sn= 3 | S(rot)=       0.01132261 Eh      7.11 kcal/mol|
|  sn= 4 | S(rot)=       0.01105099 Eh      6.93 kcal/mol|
|  sn= 5 | S(rot)=       0.01084030 Eh      6.80 kcal/mol|
|  sn= 6 | S(rot)=       0.01066816 Eh      6.69 kcal/mol|
|  sn= 7 | S(rot)=       0.01052261 Eh      6.60 kcal/mol|
|  sn= 8 | S(rot)=       0.01039653 Eh      6.52 kcal/mol|
|  sn= 9 | S(rot)=       0.01028532 Eh      6.45 kcal/mol|
|  sn=10 | S(rot)=       0.01018584 Eh      6.39 kcal/mol|
|  sn=11 | S(rot)=       0.01009585 Eh      6.34 kcal/mol|
|  sn=12 | S(rot)=       0.01001370 Eh      6.28 kcal/mol|
 --------------------------------------------------------

-------------------
GIBBS FREE ENERGY
-------------------

The Gibbs free energy is G = H - T*S

                             ****ORCA TERMINATED NORMALLY****
TOTAL RUN TIME: 0 days 0 hours 2 minutes 57 seconds 255 msec
