                         Program Version 5.0.4 -  RELEASE  -
|  1> # ORCA 5.0.4 - /users/bwb16179/postgrad/2024_06/pKa_Reviewer_Comments/CREST_Confs/butylamine/butylamine_deprot_aq_6.inp # write input file
|  2> # Basic Mode
|  3> #
|  4> ! Opt Freq wB97X Def2-SVP D4 SlowConv TightSCF Defgrid2 Def2/J RIJCOSX
|  5>
|  6> %PAL NPROCS 4 END
|  7>
|  8> %maxcore 4500
|  9>
| 10> %geom
| 11> Maxiter 150
| 12> END
| 13>
| 14> * xyzfile 0 1 butylamine_deprot_aq_6.xyz
| 15>
| 16>                          ****END OF INPUT****
 Total Charge           Charge          ....    0
 Multiplicity           Mult            ....    1
 Number of Electrons    NEL             ....   42
Dispersion correction           -0.001390019
FINAL SINGLE POINT ENERGY      -213.589485764772
Dispersion correction            ... Starting D4
Dispersion correction           -0.001386158
FINAL SINGLE POINT ENERGY      -213.590776345391
Dispersion correction            ... Starting D4
Dispersion correction           -0.001385591
FINAL SINGLE POINT ENERGY      -213.590941465849
Dispersion correction            ... Starting D4
FINAL SINGLE POINT ENERGY      -213.591003277721
FINAL SINGLE POINT ENERGY      -213.591012281851
Dispersion correction           -0.001385565
FINAL SINGLE POINT ENERGY      -213.591019203337
Dispersion correction            ... Starting D4
Dispersion correction           -0.001385472
FINAL SINGLE POINT ENERGY      -213.591021679825
Dispersion correction            ... Starting D4
                    ***********************HURRAY********************

CARTESIAN COORDINATES (ANGSTROEM)
---------------------------------
  C     -2.411687    0.310685    0.179289
  C     -1.006121   -0.229070    0.411097
  H     -2.867658   -0.130251   -0.722693
  H     -2.401022    1.404274    0.040319
  H     -3.076874    0.091502    1.028547
  C     -0.058019    0.049584   -0.750793
  H     -1.049092   -1.319733    0.582987
  H     -0.571729    0.202855    1.326774
  C      1.370913   -0.424403   -0.505086
  H     -0.044411    1.136527   -0.960894
  H     -0.440309   -0.426987   -1.671205
  N      1.965296    0.259232    0.633256
  H      1.950659   -0.314157   -1.445879
  H      1.353388   -1.505658   -0.281736
  H      2.118356    1.242124    0.414842
  H      2.876038   -0.132606    0.858210

 Multiplicity           Mult            ....    1
 Number of Electrons    NEL             ....   42
 Basis Dimension        Dim             ....  125

ORBITAL ENERGIES
----------------

  NO   OCC          E(Eh)            E(eV)
   0   2.0000     -14.378239      -391.2518
   1   2.0000     -10.286229      -279.9025
   2   2.0000     -10.258449      -279.1466
   3   2.0000     -10.254102      -279.0283
   4   2.0000     -10.252799      -278.9929
   5   2.0000      -0.998378       -27.1673
   6   2.0000      -0.901386       -24.5280
   7   2.0000      -0.822853       -22.3910
   8   2.0000      -0.730208       -19.8700
   9   2.0000      -0.682644       -18.5757
  10   2.0000      -0.601589       -16.3701
  11   2.0000      -0.568975       -15.4826
  12   2.0000      -0.550238       -14.9727
  13   2.0000      -0.525664       -14.3040
  14   2.0000      -0.511148       -13.9090
  15   2.0000      -0.472262       -12.8509
  16   2.0000      -0.454039       -12.3550
  17   2.0000      -0.429731       -11.6936
  18   2.0000      -0.424398       -11.5485
  19   2.0000      -0.415477       -11.3057
  20   2.0000      -0.332662        -9.0522
  21   0.0000       0.144366         3.9284
  22   0.0000       0.166710         4.5364
  23   0.0000       0.177514         4.8304
  24   0.0000       0.192351         5.2341
  25   0.0000       0.215444         5.8625

MULLIKEN ATOMIC CHARGES
-----------------------
   0 C :   -0.023256
   1 C :   -0.060460
   2 H :    0.017327
   3 H :    0.018993
   4 H :    0.027840
   5 C :   -0.060385
   6 H :    0.007910
   7 H :    0.027759
   8 C :    0.084867
   9 H :    0.002200
  10 H :    0.011532
  11 N :   -0.257107
  12 H :    0.001864
  13 H :    0.008011
  14 H :    0.093858
  15 H :    0.099048
Sum of atomic charges:    0.0000000

LOEWDIN ATOMIC CHARGES
----------------------
   0 C :   -0.065285
   1 C :   -0.045924
   2 H :    0.020751
   3 H :    0.021811
   4 H :    0.025109
   5 C :   -0.049569
   6 H :    0.019498
   7 H :    0.023291
   8 C :    0.012498
   9 H :    0.016223
  10 H :    0.021389
  11 N :   -0.123890
  12 H :   -0.000199
  13 H :    0.017309
  14 H :    0.052141
  15 H :    0.054846

  Mayer bond orders larger than 0.100000
B(  0-C ,  1-C ) :   1.0845 B(  0-C ,  2-H ) :   0.9739 B(  0-C ,  3-H ) :   0.9748
B(  0-C ,  4-H ) :   0.9749 B(  1-C ,  5-C ) :   1.0516 B(  1-C ,  6-H ) :   0.9556
B(  1-C ,  7-H ) :   0.9524 B(  5-C ,  8-C ) :   1.0768 B(  5-C ,  9-H ) :   0.9520
B(  5-C , 10-H ) :   0.9520 B(  8-C , 11-N ) :   1.0563 B(  8-C , 12-H ) :   0.9541
B(  8-C , 13-H ) :   0.9501 B( 11-N , 14-H ) :   0.9753 B( 11-N , 15-H ) :   0.9734

Dispersion correction           -0.001385362
FINAL SINGLE POINT ENERGY      -213.591022724505

DIPOLE MOMENT
-------------
                                X             Y             Z
Electronic contribution:      2.46056      -0.10695       0.48009
Nuclear contribution   :     -2.01946       0.18327      -0.78145
                        -----------------------------------------
Total Dipole Moment    :      0.44110       0.07633      -0.30135
                        -----------------------------------------
Magnitude (a.u.)       :      0.53963
Magnitude (Debye)      :      1.37164

Dispersion correction in the Hessian             ... Starting D4

VIBRATIONAL FREQUENCIES
-----------------------

Scaling factor for frequencies =  1.000000000  (already applied!)

   0:         0.00 cm**-1
   1:         0.00 cm**-1
   2:         0.00 cm**-1
   3:         0.00 cm**-1
   4:         0.00 cm**-1
   5:         0.00 cm**-1
   6:        79.08 cm**-1
   7:       151.89 cm**-1
   8:       213.53 cm**-1
   9:       244.29 cm**-1
  10:       276.18 cm**-1
  11:       350.48 cm**-1
  12:       515.06 cm**-1
  13:       745.84 cm**-1
  14:       807.08 cm**-1
  15:       863.61 cm**-1
  16:       871.60 cm**-1
  17:       969.00 cm**-1
  18:       978.78 cm**-1
  19:      1051.07 cm**-1
  20:      1081.41 cm**-1
  21:      1148.37 cm**-1
  22:      1155.39 cm**-1
  23:      1221.35 cm**-1
  24:      1276.31 cm**-1
  25:      1305.39 cm**-1
  26:      1323.42 cm**-1
  27:      1341.94 cm**-1
  28:      1402.58 cm**-1
  29:      1422.60 cm**-1
  30:      1441.74 cm**-1
  31:      1463.79 cm**-1
  32:      1474.47 cm**-1
  33:      1476.65 cm**-1
  34:      1489.00 cm**-1
  35:      1495.14 cm**-1
  36:      1639.42 cm**-1
  37:      2992.21 cm**-1
  38:      3043.48 cm**-1
  39:      3055.96 cm**-1
  40:      3065.97 cm**-1
  41:      3089.30 cm**-1
  42:      3101.84 cm**-1
  43:      3132.56 cm**-1
  44:      3150.81 cm**-1
  45:      3159.47 cm**-1
  46:      3563.09 cm**-1
  47:      3649.21 cm**-1

IR SPECTRUM
-----------

 Mode   freq       eps      Int      T**2         TX        TY        TZ
       cm**-1   L/(mol*cm) km/mol    a.u.
----------------------------------------------------------------------------
  6:     79.08   0.000025    0.13  0.000099  (-0.005697  0.008127  0.000353)
  7:    151.89   0.000701    3.54  0.001439  ( 0.005442  0.036366  0.009344)
  8:    213.53   0.005840   29.51  0.008535  (-0.057367  0.063540 -0.034740)
  9:    244.29   0.000026    0.13  0.000033  ( 0.003814 -0.000283  0.004263)
 10:    276.18   0.002579   13.03  0.002914  ( 0.035646 -0.034000  0.022084)
 11:    350.48   0.000615    3.11  0.000548  (-0.016418  0.010303 -0.013121)
 12:    515.06   0.001920    9.70  0.001163  (-0.017200  0.003630 -0.029228)
 13:    745.84   0.000837    4.23  0.000350  (-0.005054 -0.008649  0.015806)
 14:    807.08   0.016708   84.44  0.006460  ( 0.014693 -0.019827 -0.076495)
 15:    863.61   0.000853    4.31  0.000308  (-0.003464  0.002261  0.017058)
 16:    871.60   0.007868   39.76  0.002817  ( 0.012248 -0.005591 -0.051341)
 17:    969.00   0.000630    3.18  0.000203  (-0.000393  0.002411  0.014030)
 18:    978.78   0.000510    2.58  0.000163  (-0.008665 -0.005897 -0.007271)
 19:   1051.07   0.000279    1.41  0.000083  ( 0.003818 -0.003866  0.007306)
 20:   1081.41   0.000076    0.38  0.000022  ( 0.000355  0.000075  0.004671)
 21:   1148.37   0.001397    7.06  0.000380  ( 0.018460  0.005911  0.001951)
 22:   1155.39   0.002719   13.74  0.000734  (-0.000548 -0.005035 -0.026621)
 23:   1221.35   0.000083    0.42  0.000021  ( 0.001713  0.002584  0.003417)
 24:   1276.31   0.000576    2.91  0.000141  (-0.009832  0.001121  0.006557)
 25:   1305.39   0.000183    0.92  0.000044  (-0.000328  0.005157  0.004129)
 26:   1323.42   0.000033    0.17  0.000008  ( 0.000740 -0.000483 -0.002633)
 27:   1341.94   0.000718    3.63  0.000167  (-0.011384 -0.004869 -0.003691)
 28:   1402.58   0.000725    3.66  0.000161  (-0.010562  0.000804 -0.007001)
 29:   1422.60   0.000924    4.67  0.000203  ( 0.006600  0.009027  0.008806)
 30:   1441.74   0.001854    9.37  0.000401  (-0.017159 -0.004844 -0.009134)
 31:   1463.79   0.000650    3.28  0.000139  ( 0.007475 -0.003445  0.008414)
 32:   1474.47   0.000499    2.52  0.000106  (-0.008748 -0.005307 -0.000946)
 33:   1476.65   0.001453    7.34  0.000307  ( 0.001186  0.014829  0.009264)
 34:   1489.00   0.001132    5.72  0.000237  ( 0.000464 -0.007133  0.013644)
 35:   1495.14   0.000745    3.77  0.000156  ( 0.010042 -0.003078  0.006728)
 36:   1639.42   0.005520   27.90  0.001051  ( 0.025704  0.019330  0.004062)
 37:   2992.21   0.017142   86.63  0.001788  (-0.021733  0.012194  0.034157)
 38:   3043.48   0.005095   25.75  0.000522  (-0.001169 -0.011553  0.019687)
 39:   3055.96   0.006983   35.29  0.000713  (-0.022448  0.011572 -0.008672)
 40:   3065.97   0.005057   25.55  0.000515  (-0.001573  0.017469 -0.014388)
 41:   3089.30   0.005227   26.41  0.000528  (-0.000118 -0.015126  0.017297)
 42:   3101.84   0.008172   41.30  0.000822  (-0.006053 -0.027338 -0.006177)
 43:   3132.56   0.000365    1.84  0.000036  (-0.001115 -0.004804 -0.003463)
 44:   3150.81   0.009549   48.26  0.000946  ( 0.007676  0.026569  0.013450)
 45:   3159.47   0.005467   27.63  0.000540  (-0.008412 -0.007046  0.020484)
 46:   3563.09   0.000147    0.74  0.000013  ( 0.003340  0.000484 -0.001214)
 47:   3649.21   0.000528    2.67  0.000045  (-0.003801  0.005172 -0.001985)

--------------------------
THERMOCHEMISTRY AT 298.15K
--------------------------

Temperature         ... 298.15 K
Pressure            ... 1.00 atm
Total Mass          ... 73.14 AMU

Throughout the following assumptions are being made:
  (1) The electronic state is orbitally nondegenerate
  (2) There are no thermally accessible electronically excited states
  (3) Hindered rotations indicated by low frequency modes are not
      treated as such but are treated as vibrations and this may
      cause some error
  (4) All equations used are the standard statistical mechanics
      equations for an ideal gas
  (5) All vibrations are strictly harmonic

freq.      79.08  E(vib)   ...       0.49
freq.     151.89  E(vib)   ...       0.40
freq.     213.53  E(vib)   ...       0.34
freq.     244.29  E(vib)   ...       0.31
freq.     276.18  E(vib)   ...       0.28
freq.     350.48  E(vib)   ...       0.23
freq.     515.06  E(vib)   ...       0.13
freq.     745.84  E(vib)   ...       0.06
freq.     807.08  E(vib)   ...       0.05
freq.     863.61  E(vib)   ...       0.04
freq.     871.60  E(vib)   ...       0.04
freq.     969.00  E(vib)   ...       0.03
freq.     978.78  E(vib)   ...       0.03
freq.    1051.07  E(vib)   ...       0.02
freq.    1081.41  E(vib)   ...       0.02
freq.    1148.37  E(vib)   ...       0.01
freq.    1155.39  E(vib)   ...       0.01
freq.    1221.35  E(vib)   ...       0.01
freq.    1276.31  E(vib)   ...       0.01
freq.    1305.39  E(vib)   ...       0.01
freq.    1323.42  E(vib)   ...       0.01
freq.    1341.94  E(vib)   ...       0.01
freq.    1402.58  E(vib)   ...       0.00
freq.    1422.60  E(vib)   ...       0.00
freq.    1441.74  E(vib)   ...       0.00
freq.    1463.79  E(vib)   ...       0.00
freq.    1474.47  E(vib)   ...       0.00
freq.    1476.65  E(vib)   ...       0.00
freq.    1489.00  E(vib)   ...       0.00
freq.    1495.14  E(vib)   ...       0.00
freq.    1639.42  E(vib)   ...       0.00
freq.    2992.21  E(vib)   ...       0.00
freq.    3043.48  E(vib)   ...       0.00
freq.    3055.96  E(vib)   ...       0.00
freq.    3065.97  E(vib)   ...       0.00
freq.    3089.30  E(vib)   ...       0.00
freq.    3101.84  E(vib)   ...       0.00
freq.    3132.56  E(vib)   ...       0.00
freq.    3150.81  E(vib)   ...       0.00
freq.    3159.47  E(vib)   ...       0.00
freq.    3563.09  E(vib)   ...       0.00
freq.    3649.21  E(vib)   ...       0.00

------------
INNER ENERGY
------------

The inner energy is: U= E(el) + E(ZPE) + E(vib) + E(rot) + E(trans)
    E(el)   - is the total energy from the electronic structure calculation
              = E(kin-el) + E(nuc-el) + E(el-el) + E(nuc-nuc)
    E(ZPE)  - the the zero temperature vibrational energy from the frequency calculation
    E(vib)  - the the finite temperature correction to E(ZPE) due to population
              of excited vibrational states
    E(rot)  - is the rotational thermal energy
    E(trans)- is the translational thermal energy

Summary of contributions to the inner energy U:
Electronic energy                ...   -213.59102272 Eh
Zero point energy                ...      0.15099776 Eh      94.75 kcal/mol
Thermal vibrational correction   ...      0.00405610 Eh       2.55 kcal/mol
Thermal rotational correction    ...      0.00141627 Eh       0.89 kcal/mol
Thermal translational correction ...      0.00141627 Eh       0.89 kcal/mol
-----------------------------------------------------------------------
Total thermal energy                   -213.43313632 Eh

Summary of corrections to the electronic energy:
(perhaps to be used in another calculation)
Total thermal correction                  0.00688864 Eh       4.32 kcal/mol
Non-thermal (ZPE) correction              0.15099776 Eh      94.75 kcal/mol
-----------------------------------------------------------------------
Total correction                          0.15788641 Eh      99.07 kcal/mol

--------
ENTHALPY
--------

The enthalpy is H = U + kB*T
                kB is Boltzmann's constant
Total free energy                 ...   -213.43313632 Eh
Thermal Enthalpy correction       ...      0.00094421 Eh       0.59 kcal/mol
-----------------------------------------------------------------------
Total Enthalpy                    ...   -213.43219211 Eh

Note: Only C1 symmetry has been detected, increase convergence thresholds
      if your molecule has a higher symmetry. Symmetry factor of 1.0 is
      used for the rotational entropy correction.

Note: Rotational entropy computed according to Herzberg
Infrared and Raman Spectra, Chapter V,1, Van Nostrand Reinhold, 1945
Point Group:  C1, Symmetry Number:   1
Rotational constants in cm-1:     0.399499     0.078233     0.072462

Vibrational entropy computed according to the QRRHO of S. Grimme
Chem.Eur.J. 2012 18 9955

-------
ENTROPY
-------

The entropy contributions are T*S = T*(S(el)+S(vib)+S(rot)+S(trans))
     S(el)   - electronic entropy
     S(vib)  - vibrational entropy
     S(rot)  - rotational entropy
     S(trans)- translational entropy
The entropies will be listed as multiplied by the temperature to get
units of energy

Electronic entropy                ...      0.00000000 Eh      0.00 kcal/mol
Vibrational entropy               ...      0.00692378 Eh      4.34 kcal/mol
Rotational entropy                ...      0.01238598 Eh      7.77 kcal/mol
Translational entropy             ...      0.01842822 Eh     11.56 kcal/mol
-----------------------------------------------------------------------
Final entropy term                ...      0.03773797 Eh     23.68 kcal/mol

In case the symmetry of your molecule has not been determined correctly
or in case you have a reason to use a different symmetry number we print
out the resulting rotational entropy values for sn=1,12 :
 --------------------------------------------------------
|  sn= 1 | S(rot)=       0.01238598 Eh      7.77 kcal/mol|
|  sn= 2 | S(rot)=       0.01173152 Eh      7.36 kcal/mol|
|  sn= 3 | S(rot)=       0.01134869 Eh      7.12 kcal/mol|
|  sn= 4 | S(rot)=       0.01107707 Eh      6.95 kcal/mol|
|  sn= 5 | S(rot)=       0.01086638 Eh      6.82 kcal/mol|
|  sn= 6 | S(rot)=       0.01069423 Eh      6.71 kcal/mol|
|  sn= 7 | S(rot)=       0.01054869 Eh      6.62 kcal/mol|
|  sn= 8 | S(rot)=       0.01042261 Eh      6.54 kcal/mol|
|  sn= 9 | S(rot)=       0.01031140 Eh      6.47 kcal/mol|
|  sn=10 | S(rot)=       0.01021192 Eh      6.41 kcal/mol|
|  sn=11 | S(rot)=       0.01012193 Eh      6.35 kcal/mol|
|  sn=12 | S(rot)=       0.01003978 Eh      6.30 kcal/mol|
 --------------------------------------------------------

-------------------
GIBBS FREE ENERGY
-------------------

The Gibbs free energy is G = H - T*S

                             ****ORCA TERMINATED NORMALLY****
TOTAL RUN TIME: 0 days 0 hours 4 minutes 8 seconds 650 msec
