                         Program Version 5.0.4 -  RELEASE  -
|  1> # ORCA 5.0.4 - /users/bwb16179/postgrad/2024_06/pKa_Reviewer_Comments/CREST_Confs/butylamine/butylamine_deprot_aq_20.inp # write input file
|  2> # Basic Mode
|  3> #
|  4> ! Opt Freq wB97X Def2-SVP D4 SlowConv TightSCF Defgrid2 Def2/J RIJCOSX
|  5>
|  6> %PAL NPROCS 4 END
|  7>
|  8> %maxcore 4500
|  9>
| 10> %geom
| 11> Maxiter 150
| 12> END
| 13>
| 14> * xyzfile 0 1 butylamine_deprot_aq_20.xyz
| 15>
| 16>                          ****END OF INPUT****
 Total Charge           Charge          ....    0
 Multiplicity           Mult            ....    1
 Number of Electrons    NEL             ....   42
Dispersion correction           -0.001386678
FINAL SINGLE POINT ENERGY      -213.537643916112
Dispersion correction            ... Starting D4
Dispersion correction           -0.001385368
FINAL SINGLE POINT ENERGY      -213.573950029768
Dispersion correction            ... Starting D4
Dispersion correction           -0.001387982
FINAL SINGLE POINT ENERGY      -213.587595502526
Dispersion correction            ... Starting D4
FINAL SINGLE POINT ENERGY      -213.588542992359
FINAL SINGLE POINT ENERGY      -213.589035015924
FINAL SINGLE POINT ENERGY      -213.589140452572
FINAL SINGLE POINT ENERGY      -213.589182222786
FINAL SINGLE POINT ENERGY      -213.589206453984
FINAL SINGLE POINT ENERGY      -213.589218242589
FINAL SINGLE POINT ENERGY      -213.589229469075
Dispersion correction           -0.001392823
FINAL SINGLE POINT ENERGY      -213.589236184396
Dispersion correction            ... Starting D4
Dispersion correction           -0.001393013
FINAL SINGLE POINT ENERGY      -213.589238915076
Dispersion correction            ... Starting D4
                    ***********************HURRAY********************

CARTESIAN COORDINATES (ANGSTROEM)
---------------------------------
  C     -2.155523    0.315556    0.573209
  C     -1.384968   -0.527694   -0.439000
  H     -3.191352   -0.040366    0.683484
  H     -2.198453    1.371639    0.258610
  H     -1.692134    0.287253    1.571919
  C      0.034629   -0.039557   -0.723690
  H     -1.945120   -0.550583   -1.388870
  H     -1.343967   -1.575342   -0.090203
  C      0.976862   -0.090908    0.472541
  H     -0.005850    0.999350   -1.104122
  H      0.486535   -0.641511   -1.529275
  N      2.328893    0.266946    0.072750
  H      0.994391   -1.123401    0.865338
  H      0.571950    0.542151    1.290501
  H      2.964200    0.213079    0.865195
  H      2.353697    1.234459   -0.245178

 Multiplicity           Mult            ....    1
 Number of Electrons    NEL             ....   42
 Basis Dimension        Dim             ....  125

ORBITAL ENERGIES
----------------

  NO   OCC          E(Eh)            E(eV)
   0   2.0000     -14.376003      -391.1909
   1   2.0000     -10.284541      -279.8566
   2   2.0000     -10.264135      -279.3013
   3   2.0000     -10.260215      -279.1946
   4   2.0000     -10.258314      -279.1429
   5   2.0000      -0.996768       -27.1234
   6   2.0000      -0.908234       -24.7143
   7   2.0000      -0.820231       -22.3196
   8   2.0000      -0.742031       -20.1917
   9   2.0000      -0.680989       -18.5307
  10   2.0000      -0.587475       -15.9860
  11   2.0000      -0.580687       -15.8013
  12   2.0000      -0.565286       -15.3822
  13   2.0000      -0.514166       -13.9912
  14   2.0000      -0.511067       -13.9068
  15   2.0000      -0.490252       -13.3404
  16   2.0000      -0.454842       -12.3769
  17   2.0000      -0.432098       -11.7580
  18   2.0000      -0.424747       -11.5580
  19   2.0000      -0.419623       -11.4185
  20   2.0000      -0.332084        -9.0365
  21   0.0000       0.145177         3.9505
  22   0.0000       0.158581         4.3152
  23   0.0000       0.177230         4.8227
  24   0.0000       0.183343         4.9890
  25   0.0000       0.215051         5.8518

MULLIKEN ATOMIC CHARGES
-----------------------
   0 C :   -0.053465
   1 C :   -0.048950
   2 H :    0.029795
   3 H :    0.021842
   4 H :    0.027427
   5 C :   -0.054278
   6 H :    0.021696
   7 H :    0.016430
   8 C :    0.062705
   9 H :    0.003665
  10 H :    0.026758
  11 N :   -0.246725
  12 H :    0.008740
  13 H :   -0.003986
  14 H :    0.095457
  15 H :    0.092891
Sum of atomic charges:    0.0000000

LOEWDIN ATOMIC CHARGES
----------------------
   0 C :   -0.067499
   1 C :   -0.044971
   2 H :    0.026351
   3 H :    0.023058
   4 H :    0.020464
   5 C :   -0.048641
   6 H :    0.024578
   7 H :    0.021275
   8 C :    0.010335
   9 H :    0.015676
  10 H :    0.026499
  11 N :   -0.126205
  12 H :    0.017028
  13 H :   -0.003347
  14 H :    0.053957
  15 H :    0.051441

  Mayer bond orders larger than 0.100000
B(  0-C ,  1-C ) :   1.0745 B(  0-C ,  2-H ) :   0.9729 B(  0-C ,  3-H ) :   0.9762
B(  0-C ,  4-H ) :   0.9753 B(  1-C ,  5-C ) :   1.0718 B(  1-C ,  6-H ) :   0.9556
B(  1-C ,  7-H ) :   0.9547 B(  5-C ,  8-C ) :   1.0606 B(  5-C ,  9-H ) :   0.9516
B(  5-C , 10-H ) :   0.9494 B(  8-C , 11-N ) :   1.0670 B(  8-C , 12-H ) :   0.9518
B(  8-C , 13-H ) :   0.9506 B( 11-N , 14-H ) :   0.9717 B( 11-N , 15-H ) :   0.9747

Dispersion correction           -0.001393044
FINAL SINGLE POINT ENERGY      -213.589239324955

DIPOLE MOMENT
-------------
                                X             Y             Z
Electronic contribution:      2.61183      -0.29839      -0.63069
Nuclear contribution   :     -2.69658       0.62496       0.99189
                        -----------------------------------------
Total Dipole Moment    :     -0.08475       0.32657       0.36120
                        -----------------------------------------
Magnitude (a.u.)       :      0.49426
Magnitude (Debye)      :      1.25632

Dispersion correction in the Hessian             ... Starting D4

VIBRATIONAL FREQUENCIES
-----------------------

Scaling factor for frequencies =  1.000000000  (already applied!)

   0:         0.00 cm**-1
   1:         0.00 cm**-1
   2:         0.00 cm**-1
   3:         0.00 cm**-1
   4:         0.00 cm**-1
   5:         0.00 cm**-1
   6:        74.12 cm**-1
   7:       121.85 cm**-1
   8:       213.14 cm**-1
   9:       249.69 cm**-1
  10:       299.57 cm**-1
  11:       357.41 cm**-1
  12:       495.90 cm**-1
  13:       754.91 cm**-1
  14:       801.73 cm**-1
  15:       841.61 cm**-1
  16:       901.03 cm**-1
  17:       961.21 cm**-1
  18:       983.76 cm**-1
  19:      1068.78 cm**-1
  20:      1109.19 cm**-1
  21:      1142.31 cm**-1
  22:      1155.53 cm**-1
  23:      1218.50 cm**-1
  24:      1274.15 cm**-1
  25:      1298.35 cm**-1
  26:      1331.40 cm**-1
  27:      1353.68 cm**-1
  28:      1385.33 cm**-1
  29:      1419.02 cm**-1
  30:      1451.99 cm**-1
  31:      1467.00 cm**-1
  32:      1472.36 cm**-1
  33:      1480.50 cm**-1
  34:      1485.40 cm**-1
  35:      1505.38 cm**-1
  36:      1644.93 cm**-1
  37:      2994.14 cm**-1
  38:      3046.39 cm**-1
  39:      3060.41 cm**-1
  40:      3063.26 cm**-1
  41:      3085.03 cm**-1
  42:      3115.06 cm**-1
  43:      3124.33 cm**-1
  44:      3153.97 cm**-1
  45:      3163.05 cm**-1
  46:      3558.83 cm**-1
  47:      3642.73 cm**-1

IR SPECTRUM
-----------

 Mode   freq       eps      Int      T**2         TX        TY        TZ
       cm**-1   L/(mol*cm) km/mol    a.u.
----------------------------------------------------------------------------
  6:     74.12   0.000820    4.15  0.003454  ( 0.002042  0.045832 -0.036730)
  7:    121.85   0.000201    1.02  0.000515  ( 0.021192  0.006297 -0.005100)
  8:    213.14   0.000255    1.29  0.000374  (-0.001150  0.011197 -0.015720)
  9:    249.69   0.006221   31.44  0.007776  ( 0.047632 -0.049273  0.055488)
 10:    299.57   0.001671    8.45  0.001741  (-0.027869  0.021451 -0.022457)
 11:    357.41   0.001789    9.04  0.001562  (-0.035494  0.011599 -0.012962)
 12:    495.90   0.000673    3.40  0.000423  (-0.018169  0.009570 -0.001258)
 13:    754.91   0.000727    3.68  0.000301  (-0.014731  0.009146 -0.000224)
 14:    801.73   0.003220   16.27  0.001253  (-0.017680  0.005390  0.030194)
 15:    841.61   0.021941  110.88  0.008136  ( 0.068631 -0.024052 -0.053357)
 16:    901.03   0.000995    5.03  0.000345  (-0.006917  0.010318  0.013794)
 17:    961.21   0.000498    2.52  0.000162  (-0.002671  0.008561  0.009022)
 18:    983.76   0.002724   13.77  0.000864  (-0.024659  0.004580  0.015334)
 19:   1068.78   0.000160    0.81  0.000047  ( 0.004556 -0.003030 -0.004087)
 20:   1109.19   0.000582    2.94  0.000164  (-0.012575 -0.001111 -0.002101)
 21:   1142.31   0.002784   14.07  0.000761  (-0.026899 -0.001765  0.005827)
 22:   1155.53   0.001256    6.35  0.000339  ( 0.004717 -0.013058 -0.012101)
 23:   1218.50   0.000328    1.66  0.000084  (-0.008298 -0.002887  0.002619)
 24:   1274.15   0.000027    0.14  0.000007  (-0.001081  0.001511  0.001790)
 25:   1298.35   0.000019    0.10  0.000005  (-0.000143  0.000699  0.002033)
 26:   1331.40   0.000531    2.68  0.000124  (-0.008908 -0.004222 -0.005220)
 27:   1353.68   0.000343    1.73  0.000079  ( 0.008780  0.001364 -0.000324)
 28:   1385.33   0.000002    0.01  0.000000  (-0.000486 -0.000362 -0.000339)
 29:   1419.02   0.001455    7.36  0.000320  (-0.013085  0.008408  0.008840)
 30:   1451.99   0.002075   10.49  0.000446  ( 0.019991  0.006708  0.001177)
 31:   1467.00   0.000210    1.06  0.000045  (-0.003833 -0.005422 -0.000715)
 32:   1472.36   0.000196    0.99  0.000042  (-0.000478 -0.006053  0.002155)
 33:   1480.50   0.001871    9.45  0.000394  (-0.001580 -0.011766  0.015918)
 34:   1485.40   0.001178    5.95  0.000247  (-0.012348 -0.009497 -0.002194)
 35:   1505.38   0.000350    1.77  0.000072  ( 0.007938 -0.000178  0.003073)
 36:   1644.93   0.005619   28.40  0.001066  ( 0.020561  0.024336  0.007144)
 37:   2994.14   0.014304   72.29  0.001491  (-0.020808  0.007396  0.031672)
 38:   3046.39   0.004785   24.18  0.000490  (-0.006064 -0.014581  0.015517)
 39:   3060.41   0.006952   35.13  0.000709  ( 0.005805 -0.021071 -0.015205)
 40:   3063.26   0.003108   15.71  0.000317  (-0.013623 -0.011445 -0.000192)
 41:   3085.03   0.006361   32.15  0.000643  ( 0.001731 -0.024321  0.006993)
 42:   3115.06   0.004097   20.70  0.000410  ( 0.007313 -0.006960  0.017564)
 43:   3124.33   0.007256   36.67  0.000725  (-0.008473  0.023828  0.009229)
 44:   3153.97   0.006378   32.23  0.000631  ( 0.003008  0.019049 -0.016097)
 45:   3163.05   0.005792   29.27  0.000571  ( 0.020142  0.003871  0.012277)
 46:   3558.83   0.000106    0.54  0.000009  ( 0.000754 -0.001563 -0.002506)
 47:   3642.73   0.000318    1.61  0.000027  (-0.001688  0.002691 -0.004139)

--------------------------
THERMOCHEMISTRY AT 298.15K
--------------------------

Temperature         ... 298.15 K
Pressure            ... 1.00 atm
Total Mass          ... 73.14 AMU

Throughout the following assumptions are being made:
  (1) The electronic state is orbitally nondegenerate
  (2) There are no thermally accessible electronically excited states
  (3) Hindered rotations indicated by low frequency modes are not
      treated as such but are treated as vibrations and this may
      cause some error
  (4) All equations used are the standard statistical mechanics
      equations for an ideal gas
  (5) All vibrations are strictly harmonic

freq.      74.12  E(vib)   ...       0.49
freq.     121.85  E(vib)   ...       0.44
freq.     213.14  E(vib)   ...       0.34
freq.     249.69  E(vib)   ...       0.31
freq.     299.57  E(vib)   ...       0.26
freq.     357.41  E(vib)   ...       0.22
freq.     495.90  E(vib)   ...       0.14
freq.     754.91  E(vib)   ...       0.06
freq.     801.73  E(vib)   ...       0.05
freq.     841.61  E(vib)   ...       0.04
freq.     901.03  E(vib)   ...       0.03
freq.     961.21  E(vib)   ...       0.03
freq.     983.76  E(vib)   ...       0.02
freq.    1068.78  E(vib)   ...       0.02
freq.    1109.19  E(vib)   ...       0.02
freq.    1142.31  E(vib)   ...       0.01
freq.    1155.53  E(vib)   ...       0.01
freq.    1218.50  E(vib)   ...       0.01
freq.    1274.15  E(vib)   ...       0.01
freq.    1298.35  E(vib)   ...       0.01
freq.    1331.40  E(vib)   ...       0.01
freq.    1353.68  E(vib)   ...       0.01
freq.    1385.33  E(vib)   ...       0.00
freq.    1419.02  E(vib)   ...       0.00
freq.    1451.99  E(vib)   ...       0.00
freq.    1467.00  E(vib)   ...       0.00
freq.    1472.36  E(vib)   ...       0.00
freq.    1480.50  E(vib)   ...       0.00
freq.    1485.40  E(vib)   ...       0.00
freq.    1505.38  E(vib)   ...       0.00
freq.    1644.93  E(vib)   ...       0.00
freq.    2994.14  E(vib)   ...       0.00
freq.    3046.39  E(vib)   ...       0.00
freq.    3060.41  E(vib)   ...       0.00
freq.    3063.26  E(vib)   ...       0.00
freq.    3085.03  E(vib)   ...       0.00
freq.    3115.06  E(vib)   ...       0.00
freq.    3124.33  E(vib)   ...       0.00
freq.    3153.97  E(vib)   ...       0.00
freq.    3163.05  E(vib)   ...       0.00
freq.    3558.83  E(vib)   ...       0.00
freq.    3642.73  E(vib)   ...       0.00

------------
INNER ENERGY
------------

The inner energy is: U= E(el) + E(ZPE) + E(vib) + E(rot) + E(trans)
    E(el)   - is the total energy from the electronic structure calculation
              = E(kin-el) + E(nuc-el) + E(el-el) + E(nuc-nuc)
    E(ZPE)  - the the zero temperature vibrational energy from the frequency calculation
    E(vib)  - the the finite temperature correction to E(ZPE) due to population
              of excited vibrational states
    E(rot)  - is the rotational thermal energy
    E(trans)- is the translational thermal energy

Summary of contributions to the inner energy U:
Electronic energy                ...   -213.58923932 Eh
Zero point energy                ...      0.15110388 Eh      94.82 kcal/mol
Thermal vibrational correction   ...      0.00408235 Eh       2.56 kcal/mol
Thermal rotational correction    ...      0.00141627 Eh       0.89 kcal/mol
Thermal translational correction ...      0.00141627 Eh       0.89 kcal/mol
-----------------------------------------------------------------------
Total thermal energy                   -213.43122055 Eh

Summary of corrections to the electronic energy:
(perhaps to be used in another calculation)
Total thermal correction                  0.00691489 Eh       4.34 kcal/mol
Non-thermal (ZPE) correction              0.15110388 Eh      94.82 kcal/mol
-----------------------------------------------------------------------
Total correction                          0.15801877 Eh      99.16 kcal/mol

--------
ENTHALPY
--------

The enthalpy is H = U + kB*T
                kB is Boltzmann's constant
Total free energy                 ...   -213.43122055 Eh
Thermal Enthalpy correction       ...      0.00094421 Eh       0.59 kcal/mol
-----------------------------------------------------------------------
Total Enthalpy                    ...   -213.43027634 Eh

Note: Only C1 symmetry has been detected, increase convergence thresholds
      if your molecule has a higher symmetry. Symmetry factor of 1.0 is
      used for the rotational entropy correction.

Note: Rotational entropy computed according to Herzberg
Infrared and Raman Spectra, Chapter V,1, Van Nostrand Reinhold, 1945
Point Group:  C1, Symmetry Number:   1
Rotational constants in cm-1:     0.405677     0.077175     0.071380

Vibrational entropy computed according to the QRRHO of S. Grimme
Chem.Eur.J. 2012 18 9955

-------
ENTROPY
-------

The entropy contributions are T*S = T*(S(el)+S(vib)+S(rot)+S(trans))
     S(el)   - electronic entropy
     S(vib)  - vibrational entropy
     S(rot)  - rotational entropy
     S(trans)- translational entropy
The entropies will be listed as multiplied by the temperature to get
units of energy

Electronic entropy                ...      0.00000000 Eh      0.00 kcal/mol
Vibrational entropy               ...      0.00701409 Eh      4.40 kcal/mol
Rotational entropy                ...      0.01239227 Eh      7.78 kcal/mol
Translational entropy             ...      0.01842822 Eh     11.56 kcal/mol
-----------------------------------------------------------------------
Final entropy term                ...      0.03783458 Eh     23.74 kcal/mol

In case the symmetry of your molecule has not been determined correctly
or in case you have a reason to use a different symmetry number we print
out the resulting rotational entropy values for sn=1,12 :
 --------------------------------------------------------
|  sn= 1 | S(rot)=       0.01239227 Eh      7.78 kcal/mol|
|  sn= 2 | S(rot)=       0.01173782 Eh      7.37 kcal/mol|
|  sn= 3 | S(rot)=       0.01135498 Eh      7.13 kcal/mol|
|  sn= 4 | S(rot)=       0.01108336 Eh      6.95 kcal/mol|
|  sn= 5 | S(rot)=       0.01087267 Eh      6.82 kcal/mol|
|  sn= 6 | S(rot)=       0.01070053 Eh      6.71 kcal/mol|
|  sn= 7 | S(rot)=       0.01055498 Eh      6.62 kcal/mol|
|  sn= 8 | S(rot)=       0.01042890 Eh      6.54 kcal/mol|
|  sn= 9 | S(rot)=       0.01031769 Eh      6.47 kcal/mol|
|  sn=10 | S(rot)=       0.01021822 Eh      6.41 kcal/mol|
|  sn=11 | S(rot)=       0.01012823 Eh      6.36 kcal/mol|
|  sn=12 | S(rot)=       0.01004607 Eh      6.30 kcal/mol|
 --------------------------------------------------------

-------------------
GIBBS FREE ENERGY
-------------------

The Gibbs free energy is G = H - T*S

                             ****ORCA TERMINATED NORMALLY****
TOTAL RUN TIME: 0 days 0 hours 4 minutes 38 seconds 188 msec
