                         Program Version 5.0.4 -  RELEASE  -
|  1> # ORCA 5.0.4 - /users/bwb16179/postgrad/2024_06/pKa_Reviewer_Comments/CREST_Confs/butylamine/butylamine_deprot_aq_18.inp # write input file
|  2> # Basic Mode
|  3> #
|  4> ! Opt Freq wB97X Def2-SVP D4 SlowConv TightSCF Defgrid2 Def2/J RIJCOSX
|  5>
|  6> %PAL NPROCS 4 END
|  7>
|  8> %maxcore 4500
|  9>
| 10> %geom
| 11> Maxiter 150
| 12> END
| 13>
| 14> * xyzfile 0 1 butylamine_deprot_aq_18.xyz
| 15>
| 16>                          ****END OF INPUT****
 Total Charge           Charge          ....    0
 Multiplicity           Mult            ....    1
 Number of Electrons    NEL             ....   42
Dispersion correction           -0.001360438
FINAL SINGLE POINT ENERGY      -213.583339726274
Dispersion correction            ... Starting D4
Dispersion correction           -0.001356703
FINAL SINGLE POINT ENERGY      -213.584597744619
Dispersion correction            ... Starting D4
Dispersion correction           -0.001356043
FINAL SINGLE POINT ENERGY      -213.584758948972
Dispersion correction            ... Starting D4
FINAL SINGLE POINT ENERGY      -213.584857780301
FINAL SINGLE POINT ENERGY      -213.584961757020
FINAL SINGLE POINT ENERGY      -213.585172630551
FINAL SINGLE POINT ENERGY      -213.584995063677
FINAL SINGLE POINT ENERGY      -213.586280353895
FINAL SINGLE POINT ENERGY      -213.586989004961
FINAL SINGLE POINT ENERGY      -213.587617390816
FINAL SINGLE POINT ENERGY      -213.589465059591
FINAL SINGLE POINT ENERGY      -213.589708436235
FINAL SINGLE POINT ENERGY      -213.589960465709
FINAL SINGLE POINT ENERGY      -213.590148762612
FINAL SINGLE POINT ENERGY      -213.590249749388
FINAL SINGLE POINT ENERGY      -213.590285710188
FINAL SINGLE POINT ENERGY      -213.590297730078
Dispersion correction           -0.001345376
FINAL SINGLE POINT ENERGY      -213.590302788009
Dispersion correction            ... Starting D4
Dispersion correction           -0.001345300
FINAL SINGLE POINT ENERGY      -213.590304736147
Dispersion correction            ... Starting D4
                    ***********************HURRAY********************

CARTESIAN COORDINATES (ANGSTROEM)
---------------------------------
  C     -2.554597    0.332862    0.043246
  C     -1.290842   -0.509744   -0.079090
  H     -3.463774   -0.277460   -0.068901
  H     -2.583956    1.120813   -0.726935
  H     -2.605570    0.830783    1.025184
  C     -0.010568    0.300524    0.088367
  H     -1.277365   -1.017465   -1.060352
  H     -1.309681   -1.316461    0.675518
  C      1.257483   -0.531256   -0.041761
  H      0.001285    0.799952    1.072553
  H      0.010147    1.111824   -0.664270
  N      2.439583    0.283820    0.181715
  H      1.244012   -1.051101   -1.025082
  H      1.238425   -1.328292    0.722406
  H      2.527096    0.984154   -0.552585
  H      3.282911   -0.282801    0.137713

 Multiplicity           Mult            ....    1
 Number of Electrons    NEL             ....   42
 Basis Dimension        Dim             ....  125

ORBITAL ENERGIES
----------------

  NO   OCC          E(Eh)            E(eV)
   0   2.0000     -14.376242      -391.1974
   1   2.0000     -10.285061      -279.8707
   2   2.0000     -10.263665      -279.2885
   3   2.0000     -10.259311      -279.1700
   4   2.0000     -10.257894      -279.1315
   5   2.0000      -0.996948       -27.1283
   6   2.0000      -0.908723       -24.7276
   7   2.0000      -0.824079       -22.4243
   8   2.0000      -0.728252       -19.8167
   9   2.0000      -0.691283       -18.8108
  10   2.0000      -0.598048       -16.2737
  11   2.0000      -0.577454       -15.7133
  12   2.0000      -0.551685       -15.0121
  13   2.0000      -0.526837       -14.3360
  14   2.0000      -0.511485       -13.9182
  15   2.0000      -0.479135       -13.0379
  16   2.0000      -0.452626       -12.3166
  17   2.0000      -0.432198       -11.7607
  18   2.0000      -0.429860       -11.6971
  19   2.0000      -0.419375       -11.4118
  20   2.0000      -0.332820        -9.0565
  21   0.0000       0.146245         3.9795
  22   0.0000       0.158463         4.3120
  23   0.0000       0.176787         4.8106
  24   0.0000       0.186629         5.0784
  25   0.0000       0.201410         5.4806

MULLIKEN ATOMIC CHARGES
-----------------------
   0 C :   -0.023708
   1 C :   -0.067962
   2 H :    0.028219
   3 H :    0.022092
   4 H :    0.024165
   5 C :   -0.065616
   6 H :    0.014023
   7 H :    0.016724
   8 C :    0.081449
   9 H :    0.021775
  10 H :    0.003011
  11 N :   -0.244863
  12 H :   -0.008082
  13 H :    0.008984
  14 H :    0.093445
  15 H :    0.096344
Sum of atomic charges:   -0.0000000

LOEWDIN ATOMIC CHARGES
----------------------
   0 C :   -0.063187
   1 C :   -0.045989
   2 H :    0.025342
   3 H :    0.023056
   4 H :    0.024183
   5 C :   -0.048821
   6 H :    0.019535
   7 H :    0.021110
   8 C :    0.011820
   9 H :    0.024176
  10 H :    0.016062
  11 N :   -0.126438
  12 H :   -0.003535
  13 H :    0.017053
  14 H :    0.051473
  15 H :    0.054159

  Mayer bond orders larger than 0.100000
B(  0-C ,  1-C ) :   1.0878 B(  0-C ,  2-H ) :   0.9738 B(  0-C ,  3-H ) :   0.9750
B(  0-C ,  4-H ) :   0.9751 B(  1-C ,  5-C ) :   1.0568 B(  1-C ,  6-H ) :   0.9535
B(  1-C ,  7-H ) :   0.9553 B(  5-C ,  8-C ) :   1.0666 B(  5-C ,  9-H ) :   0.9503
B(  5-C , 10-H ) :   0.9530 B(  8-C , 11-N ) :   1.0713 B(  8-C , 12-H ) :   0.9501
B(  8-C , 13-H ) :   0.9504 B( 11-N , 14-H ) :   0.9746 B( 11-N , 15-H ) :   0.9712

Dispersion correction           -0.001345290
FINAL SINGLE POINT ENERGY      -213.590305472980

DIPOLE MOMENT
-------------
                                X             Y             Z
Electronic contribution:      2.85906       0.00975       0.30042
Nuclear contribution   :     -2.74155      -0.20759      -0.74646
                        -----------------------------------------
Total Dipole Moment    :      0.11751      -0.19784      -0.44604
                        -----------------------------------------
Magnitude (a.u.)       :      0.50190
Magnitude (Debye)      :      1.27574

Dispersion correction in the Hessian             ... Starting D4

VIBRATIONAL FREQUENCIES
-----------------------

Scaling factor for frequencies =  1.000000000  (already applied!)

   0:         0.00 cm**-1
   1:         0.00 cm**-1
   2:         0.00 cm**-1
   3:         0.00 cm**-1
   4:         0.00 cm**-1
   5:         0.00 cm**-1
   6:        93.89 cm**-1
   7:       106.15 cm**-1
   8:       177.40 cm**-1
   9:       224.79 cm**-1
  10:       252.29 cm**-1
  11:       402.31 cm**-1
  12:       444.22 cm**-1
  13:       741.90 cm**-1
  14:       799.18 cm**-1
  15:       840.07 cm**-1
  16:       916.08 cm**-1
  17:       949.35 cm**-1
  18:      1012.10 cm**-1
  19:      1079.33 cm**-1
  20:      1103.64 cm**-1
  21:      1143.37 cm**-1
  22:      1165.88 cm**-1
  23:      1222.66 cm**-1
  24:      1259.82 cm**-1
  25:      1304.30 cm**-1
  26:      1313.77 cm**-1
  27:      1335.24 cm**-1
  28:      1389.84 cm**-1
  29:      1418.18 cm**-1
  30:      1456.10 cm**-1
  31:      1468.74 cm**-1
  32:      1471.56 cm**-1
  33:      1475.48 cm**-1
  34:      1486.32 cm**-1
  35:      1502.52 cm**-1
  36:      1644.13 cm**-1
  37:      2976.35 cm**-1
  38:      3046.19 cm**-1
  39:      3055.47 cm**-1
  40:      3060.02 cm**-1
  41:      3087.48 cm**-1
  42:      3099.82 cm**-1
  43:      3119.70 cm**-1
  44:      3153.00 cm**-1
  45:      3161.61 cm**-1
  46:      3560.97 cm**-1
  47:      3645.56 cm**-1

IR SPECTRUM
-----------

 Mode   freq       eps      Int      T**2         TX        TY        TZ
       cm**-1   L/(mol*cm) km/mol    a.u.
----------------------------------------------------------------------------
  6:     93.89   0.000796    4.02  0.002646  ( 0.006523 -0.046818  0.020296)
  7:    106.15   0.000154    0.78  0.000452  (-0.020338  0.001890 -0.005918)
  8:    177.40   0.000307    1.55  0.000539  (-0.003760  0.021885 -0.006799)
  9:    224.79   0.000171    0.86  0.000237  (-0.005753  0.012837 -0.006268)
 10:    252.29   0.008169   41.28  0.010104  ( 0.067637 -0.061245  0.042168)
 11:    402.31   0.000009    0.05  0.000007  ( 0.001690 -0.002096  0.000299)
 12:    444.22   0.002001   10.11  0.001406  (-0.033001  0.004103 -0.017319)
 13:    741.90   0.000611    3.09  0.000257  ( 0.002603 -0.000052 -0.015817)
 14:    799.18   0.004972   25.13  0.001941  ( 0.017498  0.031223  0.025697)
 15:    840.07   0.022674  114.58  0.008423  (-0.039620 -0.051375 -0.064912)
 16:    916.08   0.000334    1.69  0.000114  ( 0.010149  0.001131 -0.003107)
 17:    949.35   0.000958    4.84  0.000315  ( 0.004672  0.010273  0.013690)
 18:   1012.10   0.000747    3.78  0.000230  ( 0.009168  0.010956  0.005130)
 19:   1079.33   0.000157    0.79  0.000045  ( 0.000054  0.003722  0.005615)
 20:   1103.64   0.000252    1.28  0.000071  (-0.003953 -0.000528 -0.007448)
 21:   1143.37   0.002727   13.78  0.000744  ( 0.025128  0.009147  0.005416)
 22:   1165.88   0.001752    8.86  0.000469  (-0.002922 -0.012424 -0.017498)
 23:   1222.66   0.000134    0.68  0.000034  (-0.004652 -0.003447  0.000783)
 24:   1259.82   0.000397    2.01  0.000098  (-0.008602 -0.000896  0.004863)
 25:   1304.30   0.000069    0.35  0.000017  ( 0.003424 -0.001226  0.001827)
 26:   1313.77   0.000165    0.84  0.000039  ( 0.006055  0.000834 -0.001393)
 27:   1335.24   0.000326    1.65  0.000076  ( 0.007846  0.003054  0.002299)
 28:   1389.84   0.000161    0.81  0.000036  ( 0.005448 -0.002160 -0.001367)
 29:   1418.18   0.000378    1.91  0.000083  (-0.001550  0.008962  0.000707)
 30:   1456.10   0.003712   18.76  0.000796  (-0.026459 -0.009757 -0.000596)
 31:   1468.74   0.000015    0.07  0.000003  (-0.000944 -0.001503  0.000040)
 32:   1471.56   0.001600    8.09  0.000339  (-0.000582 -0.002777  0.018201)
 33:   1475.48   0.000098    0.50  0.000021  (-0.004052  0.001960 -0.000678)
 34:   1486.32   0.000771    3.89  0.000162  (-0.002810 -0.012131 -0.002600)
 35:   1502.52   0.000503    2.54  0.000104  ( 0.009506 -0.003652  0.000835)
 36:   1644.13   0.005418   27.38  0.001028  (-0.024957 -0.009191  0.017915)
 37:   2976.35   0.016159   81.66  0.001694  (-0.006060 -0.029755 -0.027787)
 38:   3046.19   0.003340   16.88  0.000342  (-0.003284 -0.017652  0.004453)
 39:   3055.47   0.010237   51.74  0.001046  ( 0.006343 -0.031266 -0.005268)
 40:   3060.02   0.003364   17.00  0.000343  ( 0.017774 -0.005155  0.000772)
 41:   3087.48   0.005681   28.71  0.000574  (-0.000023 -0.018709  0.014971)
 42:   3099.82   0.000231    1.17  0.000023  (-0.000282  0.002329 -0.004218)
 43:   3119.70   0.010012   50.60  0.001002  (-0.001272 -0.003936  0.031376)
 44:   3153.00   0.007512   37.96  0.000744  ( 0.001500  0.005687 -0.026626)
 45:   3161.61   0.005111   25.83  0.000504  (-0.014204 -0.016849 -0.004342)
 46:   3560.97   0.000104    0.53  0.000009  ( 0.000656 -0.001531 -0.002527)
 47:   3645.56   0.000340    1.72  0.000029  ( 0.002616 -0.004416  0.001654)

--------------------------
THERMOCHEMISTRY AT 298.15K
--------------------------

Temperature         ... 298.15 K
Pressure            ... 1.00 atm
Total Mass          ... 73.14 AMU

Throughout the following assumptions are being made:
  (1) The electronic state is orbitally nondegenerate
  (2) There are no thermally accessible electronically excited states
  (3) Hindered rotations indicated by low frequency modes are not
      treated as such but are treated as vibrations and this may
      cause some error
  (4) All equations used are the standard statistical mechanics
      equations for an ideal gas
  (5) All vibrations are strictly harmonic

freq.      93.89  E(vib)   ...       0.47
freq.     106.15  E(vib)   ...       0.45
freq.     177.40  E(vib)   ...       0.37
freq.     224.79  E(vib)   ...       0.33
freq.     252.29  E(vib)   ...       0.30
freq.     402.31  E(vib)   ...       0.19
freq.     444.22  E(vib)   ...       0.17
freq.     741.90  E(vib)   ...       0.06
freq.     799.18  E(vib)   ...       0.05
freq.     840.07  E(vib)   ...       0.04
freq.     916.08  E(vib)   ...       0.03
freq.     949.35  E(vib)   ...       0.03
freq.    1012.10  E(vib)   ...       0.02
freq.    1079.33  E(vib)   ...       0.02
freq.    1103.64  E(vib)   ...       0.02
freq.    1143.37  E(vib)   ...       0.01
freq.    1165.88  E(vib)   ...       0.01
freq.    1222.66  E(vib)   ...       0.01
freq.    1259.82  E(vib)   ...       0.01
freq.    1304.30  E(vib)   ...       0.01
freq.    1313.77  E(vib)   ...       0.01
freq.    1335.24  E(vib)   ...       0.01
freq.    1389.84  E(vib)   ...       0.00
freq.    1418.18  E(vib)   ...       0.00
freq.    1456.10  E(vib)   ...       0.00
freq.    1468.74  E(vib)   ...       0.00
freq.    1471.56  E(vib)   ...       0.00
freq.    1475.48  E(vib)   ...       0.00
freq.    1486.32  E(vib)   ...       0.00
freq.    1502.52  E(vib)   ...       0.00
freq.    1644.13  E(vib)   ...       0.00
freq.    2976.35  E(vib)   ...       0.00
freq.    3046.19  E(vib)   ...       0.00
freq.    3055.47  E(vib)   ...       0.00
freq.    3060.02  E(vib)   ...       0.00
freq.    3087.48  E(vib)   ...       0.00
freq.    3099.82  E(vib)   ...       0.00
freq.    3119.70  E(vib)   ...       0.00
freq.    3153.00  E(vib)   ...       0.00
freq.    3161.61  E(vib)   ...       0.00
freq.    3560.97  E(vib)   ...       0.00
freq.    3645.56  E(vib)   ...       0.00

------------
INNER ENERGY
------------

The inner energy is: U= E(el) + E(ZPE) + E(vib) + E(rot) + E(trans)
    E(el)   - is the total energy from the electronic structure calculation
              = E(kin-el) + E(nuc-el) + E(el-el) + E(nuc-nuc)
    E(ZPE)  - the the zero temperature vibrational energy from the frequency calculation
    E(vib)  - the the finite temperature correction to E(ZPE) due to population
              of excited vibrational states
    E(rot)  - is the rotational thermal energy
    E(trans)- is the translational thermal energy

Summary of contributions to the inner energy U:
Electronic energy                ...   -213.59030547 Eh
Zero point energy                ...      0.15073902 Eh      94.59 kcal/mol
Thermal vibrational correction   ...      0.00422395 Eh       2.65 kcal/mol
Thermal rotational correction    ...      0.00141627 Eh       0.89 kcal/mol
Thermal translational correction ...      0.00141627 Eh       0.89 kcal/mol
-----------------------------------------------------------------------
Total thermal energy                   -213.43250997 Eh

Summary of corrections to the electronic energy:
(perhaps to be used in another calculation)
Total thermal correction                  0.00705649 Eh       4.43 kcal/mol
Non-thermal (ZPE) correction              0.15073902 Eh      94.59 kcal/mol
-----------------------------------------------------------------------
Total correction                          0.15779551 Eh      99.02 kcal/mol

--------
ENTHALPY
--------

The enthalpy is H = U + kB*T
                kB is Boltzmann's constant
Total free energy                 ...   -213.43250997 Eh
Thermal Enthalpy correction       ...      0.00094421 Eh       0.59 kcal/mol
-----------------------------------------------------------------------
Total Enthalpy                    ...   -213.43156576 Eh

Note: Only C1 symmetry has been detected, increase convergence thresholds
      if your molecule has a higher symmetry. Symmetry factor of 1.0 is
      used for the rotational entropy correction.

Note: Rotational entropy computed according to Herzberg
Infrared and Raman Spectra, Chapter V,1, Van Nostrand Reinhold, 1945
Point Group:  C1, Symmetry Number:   1
Rotational constants in cm-1:     0.604100     0.065523     0.062148

Vibrational entropy computed according to the QRRHO of S. Grimme
Chem.Eur.J. 2012 18 9955

-------
ENTROPY
-------

The entropy contributions are T*S = T*(S(el)+S(vib)+S(rot)+S(trans))
     S(el)   - electronic entropy
     S(vib)  - vibrational entropy
     S(rot)  - rotational entropy
     S(trans)- translational entropy
The entropies will be listed as multiplied by the temperature to get
units of energy

Electronic entropy                ...      0.00000000 Eh      0.00 kcal/mol
Vibrational entropy               ...      0.00738678 Eh      4.64 kcal/mol
Rotational entropy                ...      0.01234695 Eh      7.75 kcal/mol
Translational entropy             ...      0.01842822 Eh     11.56 kcal/mol
-----------------------------------------------------------------------
Final entropy term                ...      0.03816194 Eh     23.95 kcal/mol

In case the symmetry of your molecule has not been determined correctly
or in case you have a reason to use a different symmetry number we print
out the resulting rotational entropy values for sn=1,12 :
 --------------------------------------------------------
|  sn= 1 | S(rot)=       0.01234695 Eh      7.75 kcal/mol|
|  sn= 2 | S(rot)=       0.01169249 Eh      7.34 kcal/mol|
|  sn= 3 | S(rot)=       0.01130966 Eh      7.10 kcal/mol|
|  sn= 4 | S(rot)=       0.01103803 Eh      6.93 kcal/mol|
|  sn= 5 | S(rot)=       0.01082735 Eh      6.79 kcal/mol|
|  sn= 6 | S(rot)=       0.01065520 Eh      6.69 kcal/mol|
|  sn= 7 | S(rot)=       0.01050965 Eh      6.59 kcal/mol|
|  sn= 8 | S(rot)=       0.01038358 Eh      6.52 kcal/mol|
|  sn= 9 | S(rot)=       0.01027237 Eh      6.45 kcal/mol|
|  sn=10 | S(rot)=       0.01017289 Eh      6.38 kcal/mol|
|  sn=11 | S(rot)=       0.01008290 Eh      6.33 kcal/mol|
|  sn=12 | S(rot)=       0.01000074 Eh      6.28 kcal/mol|
 --------------------------------------------------------

-------------------
GIBBS FREE ENERGY
-------------------

The Gibbs free energy is G = H - T*S

                             ****ORCA TERMINATED NORMALLY****
TOTAL RUN TIME: 0 days 0 hours 10 minutes 6 seconds 564 msec
