                         Program Version 5.0.4 -  RELEASE  -
|  1> # ORCA 5.0.4 - /users/bwb16179/postgrad/2024_06/pKa_Reviewer_Comments/CREST_Confs/butylamine/butylamine_deprot_aq_8.inp # write input file
|  2> # Basic Mode
|  3> #
|  4> ! Opt Freq wB97X Def2-SVP D4 SlowConv TightSCF Defgrid2 Def2/J RIJCOSX
|  5>
|  6> %PAL NPROCS 4 END
|  7>
|  8> %maxcore 4500
|  9>
| 10> %geom
| 11> Maxiter 150
| 12> END
| 13>
| 14> * xyzfile 0 1 butylamine_deprot_aq_8.xyz
| 15>
| 16>                          ****END OF INPUT****
 Total Charge           Charge          ....    0
 Multiplicity           Mult            ....    1
 Number of Electrons    NEL             ....   42
Dispersion correction           -0.001394029
FINAL SINGLE POINT ENERGY      -213.588164859691
Dispersion correction            ... Starting D4
Dispersion correction           -0.001392400
FINAL SINGLE POINT ENERGY      -213.589356962408
Dispersion correction            ... Starting D4
Dispersion correction           -0.001392615
FINAL SINGLE POINT ENERGY      -213.589510807392
Dispersion correction            ... Starting D4
FINAL SINGLE POINT ENERGY      -213.589568764563
Dispersion correction           -0.001393426
FINAL SINGLE POINT ENERGY      -213.589574204031
Dispersion correction            ... Starting D4
Dispersion correction           -0.001393661
FINAL SINGLE POINT ENERGY      -213.589578542103
Dispersion correction            ... Starting D4
                    ***********************HURRAY********************

CARTESIAN COORDINATES (ANGSTROEM)
---------------------------------
  C     -2.117763    0.310638    0.606723
  C     -1.390113   -0.435323   -0.507355
  H     -2.131951    1.395875    0.414150
  H     -1.639276    0.157143    1.586692
  H     -3.162119   -0.024333    0.698139
  C      0.042201    0.039105   -0.746670
  H     -1.958486   -0.328494   -1.446315
  H     -1.384310   -1.517361   -0.283997
  C      0.982694   -0.177298    0.432727
  H      0.054301    1.111838   -1.006185
  H      0.455536   -0.489641   -1.624746
  N      2.325065    0.270714    0.104047
  H      0.922574   -1.244289    0.743870
  H      0.630414    0.411066    1.296847
  H      2.715362   -0.303588   -0.640977
  H      2.947650    0.168203    0.901412

 Multiplicity           Mult            ....    1
 Number of Electrons    NEL             ....   42
 Basis Dimension        Dim             ....  125

ORBITAL ENERGIES
----------------

  NO   OCC          E(Eh)            E(eV)
   0   2.0000     -14.376246      -391.1975
   1   2.0000     -10.284651      -279.8596
   2   2.0000     -10.263814      -279.2926
   3   2.0000     -10.259095      -279.1642
   4   2.0000     -10.258107      -279.1373
   5   2.0000      -0.997019       -27.1303
   6   2.0000      -0.908131       -24.7115
   7   2.0000      -0.819541       -22.3009
   8   2.0000      -0.742595       -20.2070
   9   2.0000      -0.679271       -18.4839
  10   2.0000      -0.598399       -16.2833
  11   2.0000      -0.574553       -15.6344
  12   2.0000      -0.550110       -14.9693
  13   2.0000      -0.539229       -14.6732
  14   2.0000      -0.499021       -13.5791
  15   2.0000      -0.477888       -13.0040
  16   2.0000      -0.468622       -12.7519
  17   2.0000      -0.431832       -11.7507
  18   2.0000      -0.423026       -11.5111
  19   2.0000      -0.416188       -11.3250
  20   2.0000      -0.332822        -9.0565
  21   0.0000       0.144896         3.9428
  22   0.0000       0.159968         4.3530
  23   0.0000       0.174638         4.7521
  24   0.0000       0.188270         5.1231
  25   0.0000       0.216881         5.9016

MULLIKEN ATOMIC CHARGES
-----------------------
   0 C :   -0.053379
   1 C :   -0.049421
   2 H :    0.025648
   3 H :    0.027045
   4 H :    0.029232
   5 C :   -0.050668
   6 H :    0.021103
   7 H :    0.013561
   8 C :    0.062277
   9 H :    0.021566
  10 H :    0.007634
  11 N :   -0.247610
  12 H :   -0.008262
  13 H :    0.012202
  14 H :    0.093052
  15 H :    0.096018
Sum of atomic charges:    0.0000000

LOEWDIN ATOMIC CHARGES
----------------------
   0 C :   -0.066299
   1 C :   -0.045872
   2 H :    0.024781
   3 H :    0.021239
   4 H :    0.026152
   5 C :   -0.048401
   6 H :    0.024235
   7 H :    0.019581
   8 C :    0.010560
   9 H :    0.023827
  10 H :    0.018577
  11 N :   -0.125917
  12 H :   -0.003671
  13 H :    0.015976
  14 H :    0.051135
  15 H :    0.054096

  Mayer bond orders larger than 0.100000
B(  0-C ,  1-C ) :   1.0776 B(  0-C ,  2-H ) :   0.9762 B(  0-C ,  3-H ) :   0.9755
B(  0-C ,  4-H ) :   0.9734 B(  1-C ,  5-C ) :   1.0662 B(  1-C ,  6-H ) :   0.9554
B(  1-C ,  7-H ) :   0.9527 B(  5-C ,  8-C ) :   1.0584 B(  5-C ,  9-H ) :   0.9498
B(  5-C , 10-H ) :   0.9533 B(  8-C , 11-N ) :   1.0660 B(  8-C , 12-H ) :   0.9514
B(  8-C , 13-H ) :   0.9503 B( 11-N , 14-H ) :   0.9749 B( 11-N , 15-H ) :   0.9714

Dispersion correction           -0.001393764
FINAL SINGLE POINT ENERGY      -213.589580148241

DIPOLE MOMENT
-------------
                                X             Y             Z
Electronic contribution:      2.50142       0.14768      -0.53462
Nuclear contribution   :     -2.40431      -0.61621       0.66715
                        -----------------------------------------
Total Dipole Moment    :      0.09711      -0.46853       0.13253
                        -----------------------------------------
Magnitude (a.u.)       :      0.49650
Magnitude (Debye)      :      1.26201

Dispersion correction in the Hessian             ... Starting D4

VIBRATIONAL FREQUENCIES
-----------------------

Scaling factor for frequencies =  1.000000000  (already applied!)

   0:         0.00 cm**-1
   1:         0.00 cm**-1
   2:         0.00 cm**-1
   3:         0.00 cm**-1
   4:         0.00 cm**-1
   5:         0.00 cm**-1
   6:        96.99 cm**-1
   7:       130.63 cm**-1
   8:       222.55 cm**-1
   9:       266.93 cm**-1
  10:       292.82 cm**-1
  11:       358.39 cm**-1
  12:       502.24 cm**-1
  13:       753.20 cm**-1
  14:       797.44 cm**-1
  15:       841.09 cm**-1
  16:       899.06 cm**-1
  17:       963.85 cm**-1
  18:       977.34 cm**-1
  19:      1071.37 cm**-1
  20:      1107.62 cm**-1
  21:      1145.51 cm**-1
  22:      1166.38 cm**-1
  23:      1204.03 cm**-1
  24:      1266.81 cm**-1
  25:      1312.43 cm**-1
  26:      1333.30 cm**-1
  27:      1354.92 cm**-1
  28:      1382.46 cm**-1
  29:      1419.30 cm**-1
  30:      1452.19 cm**-1
  31:      1466.15 cm**-1
  32:      1472.81 cm**-1
  33:      1480.66 cm**-1
  34:      1487.74 cm**-1
  35:      1505.73 cm**-1
  36:      1644.91 cm**-1
  37:      2970.68 cm**-1
  38:      3056.73 cm**-1
  39:      3062.96 cm**-1
  40:      3066.16 cm**-1
  41:      3099.90 cm**-1
  42:      3113.77 cm**-1
  43:      3122.90 cm**-1
  44:      3157.33 cm**-1
  45:      3164.41 cm**-1
  46:      3561.85 cm**-1
  47:      3647.01 cm**-1

IR SPECTRUM
-----------

 Mode   freq       eps      Int      T**2         TX        TY        TZ
       cm**-1   L/(mol*cm) km/mol    a.u.
----------------------------------------------------------------------------
  6:     96.99   0.000851    4.30  0.002737  ( 0.021133 -0.009395 -0.046925)
  7:    130.63   0.000051    0.26  0.000122  ( 0.008220  0.004937  0.005459)
  8:    222.55   0.000429    2.17  0.000602  (-0.002588 -0.005438 -0.023775)
  9:    266.93   0.006846   34.60  0.008003  (-0.030813 -0.028359 -0.079055)
 10:    292.82   0.000282    1.43  0.000301  ( 0.012978  0.006741  0.009327)
 11:    358.39   0.001899    9.59  0.001653  (-0.027180 -0.018442 -0.023964)
 12:    502.24   0.000748    3.78  0.000465  ( 0.016923  0.011133  0.007377)
 13:    753.20   0.000877    4.43  0.000364  ( 0.011303 -0.011298  0.010398)
 14:    797.44   0.005718   28.90  0.002238  ( 0.025547  0.038427 -0.010413)
 15:    841.09   0.022423  113.32  0.008320  (-0.046137 -0.072927  0.029540)
 16:    899.06   0.000218    1.10  0.000076  (-0.000089  0.003763 -0.007837)
 17:    963.85   0.000397    2.01  0.000129  (-0.007237  0.008708 -0.000582)
 18:    977.34   0.001655    8.36  0.000528  (-0.012635 -0.018834  0.003733)
 19:   1071.37   0.000181    0.92  0.000053  ( 0.004522  0.005572 -0.001131)
 20:   1107.62   0.000765    3.87  0.000216  ( 0.012855  0.006893  0.001700)
 21:   1145.51   0.002854   14.42  0.000777  ( 0.026506  0.008148 -0.002903)
 22:   1166.38   0.001282    6.48  0.000343  ( 0.001367 -0.017914  0.004483)
 23:   1204.03   0.000044    0.22  0.000011  ( 0.001735  0.002712  0.001009)
 24:   1266.81   0.000315    1.59  0.000078  ( 0.008058 -0.003523 -0.000535)
 25:   1312.43   0.000102    0.52  0.000024  ( 0.001426  0.002232  0.004155)
 26:   1333.30   0.000887    4.48  0.000208  ( 0.014308  0.001501  0.000853)
 27:   1354.92   0.000174    0.88  0.000040  ( 0.006240 -0.001111  0.000017)
 28:   1382.46   0.000094    0.47  0.000021  (-0.003970 -0.002218 -0.000732)
 29:   1419.30   0.001335    6.75  0.000293  (-0.011317  0.008557  0.009603)
 30:   1452.19   0.002194   11.09  0.000471  (-0.021565 -0.002518  0.000221)
 31:   1466.15   0.000248    1.25  0.000053  ( 0.004694  0.005510  0.000595)
 32:   1472.81   0.000169    0.86  0.000036  ( 0.002227  0.005505 -0.000775)
 33:   1480.66   0.001765    8.92  0.000372  ( 0.000793 -0.011354  0.015570)
 34:   1487.74   0.001247    6.30  0.000262  (-0.013026 -0.009476 -0.001459)
 35:   1505.73   0.000277    1.40  0.000057  ( 0.006626  0.001849  0.003186)
 36:   1644.91   0.005494   27.77  0.001042  ( 0.028659 -0.014493 -0.003305)
 37:   2970.68   0.016243   82.09  0.001706  (-0.011928 -0.034028  0.020152)
 38:   3056.73   0.005356   27.07  0.000547  (-0.014432 -0.012629  0.013380)
 39:   3062.96   0.008129   41.08  0.000828  (-0.007370  0.017611  0.021534)
 40:   3066.16   0.001906    9.63  0.000194  ( 0.007368  0.007736  0.008936)
 41:   3099.90   0.002625   13.26  0.000264  (-0.008090  0.005819  0.012843)
 42:   3113.77   0.004810   24.31  0.000482  (-0.001765 -0.006050 -0.021032)
 43:   3122.90   0.009528   48.15  0.000952  ( 0.011393 -0.028576 -0.002384)
 44:   3157.33   0.006201   31.34  0.000613  (-0.001193 -0.019707  0.014938)
 45:   3164.41   0.005709   28.85  0.000563  (-0.020605 -0.003594 -0.011202)
 46:   3561.85   0.000114    0.57  0.000010  (-0.000098  0.002854 -0.001342)
 47:   3647.01   0.000366    1.85  0.000031  ( 0.000964  0.000971  0.005429)

--------------------------
THERMOCHEMISTRY AT 298.15K
--------------------------

Temperature         ... 298.15 K
Pressure            ... 1.00 atm
Total Mass          ... 73.14 AMU

Throughout the following assumptions are being made:
  (1) The electronic state is orbitally nondegenerate
  (2) There are no thermally accessible electronically excited states
  (3) Hindered rotations indicated by low frequency modes are not
      treated as such but are treated as vibrations and this may
      cause some error
  (4) All equations used are the standard statistical mechanics
      equations for an ideal gas
  (5) All vibrations are strictly harmonic

freq.      96.99  E(vib)   ...       0.46
freq.     130.63  E(vib)   ...       0.43
freq.     222.55  E(vib)   ...       0.33
freq.     266.93  E(vib)   ...       0.29
freq.     292.82  E(vib)   ...       0.27
freq.     358.39  E(vib)   ...       0.22
freq.     502.24  E(vib)   ...       0.14
freq.     753.20  E(vib)   ...       0.06
freq.     797.44  E(vib)   ...       0.05
freq.     841.09  E(vib)   ...       0.04
freq.     899.06  E(vib)   ...       0.03
freq.     963.85  E(vib)   ...       0.03
freq.     977.34  E(vib)   ...       0.03
freq.    1071.37  E(vib)   ...       0.02
freq.    1107.62  E(vib)   ...       0.02
freq.    1145.51  E(vib)   ...       0.01
freq.    1166.38  E(vib)   ...       0.01
freq.    1204.03  E(vib)   ...       0.01
freq.    1266.81  E(vib)   ...       0.01
freq.    1312.43  E(vib)   ...       0.01
freq.    1333.30  E(vib)   ...       0.01
freq.    1354.92  E(vib)   ...       0.01
freq.    1382.46  E(vib)   ...       0.01
freq.    1419.30  E(vib)   ...       0.00
freq.    1452.19  E(vib)   ...       0.00
freq.    1466.15  E(vib)   ...       0.00
freq.    1472.81  E(vib)   ...       0.00
freq.    1480.66  E(vib)   ...       0.00
freq.    1487.74  E(vib)   ...       0.00
freq.    1505.73  E(vib)   ...       0.00
freq.    1644.91  E(vib)   ...       0.00
freq.    2970.68  E(vib)   ...       0.00
freq.    3056.73  E(vib)   ...       0.00
freq.    3062.96  E(vib)   ...       0.00
freq.    3066.16  E(vib)   ...       0.00
freq.    3099.90  E(vib)   ...       0.00
freq.    3113.77  E(vib)   ...       0.00
freq.    3122.90  E(vib)   ...       0.00
freq.    3157.33  E(vib)   ...       0.00
freq.    3164.41  E(vib)   ...       0.00
freq.    3561.85  E(vib)   ...       0.00
freq.    3647.01  E(vib)   ...       0.00

------------
INNER ENERGY
------------

The inner energy is: U= E(el) + E(ZPE) + E(vib) + E(rot) + E(trans)
    E(el)   - is the total energy from the electronic structure calculation
              = E(kin-el) + E(nuc-el) + E(el-el) + E(nuc-nuc)
    E(ZPE)  - the the zero temperature vibrational energy from the frequency calculation
    E(vib)  - the the finite temperature correction to E(ZPE) due to population
              of excited vibrational states
    E(rot)  - is the rotational thermal energy
    E(trans)- is the translational thermal energy

Summary of contributions to the inner energy U:
Electronic energy                ...   -213.58958015 Eh
Zero point energy                ...      0.15127151 Eh      94.92 kcal/mol
Thermal vibrational correction   ...      0.00398842 Eh       2.50 kcal/mol
Thermal rotational correction    ...      0.00141627 Eh       0.89 kcal/mol
Thermal translational correction ...      0.00141627 Eh       0.89 kcal/mol
-----------------------------------------------------------------------
Total thermal energy                   -213.43148767 Eh

Summary of corrections to the electronic energy:
(perhaps to be used in another calculation)
Total thermal correction                  0.00682097 Eh       4.28 kcal/mol
Non-thermal (ZPE) correction              0.15127151 Eh      94.92 kcal/mol
-----------------------------------------------------------------------
Total correction                          0.15809248 Eh      99.20 kcal/mol

--------
ENTHALPY
--------

The enthalpy is H = U + kB*T
                kB is Boltzmann's constant
Total free energy                 ...   -213.43148767 Eh
Thermal Enthalpy correction       ...      0.00094421 Eh       0.59 kcal/mol
-----------------------------------------------------------------------
Total Enthalpy                    ...   -213.43054346 Eh

Note: Only C1 symmetry has been detected, increase convergence thresholds
      if your molecule has a higher symmetry. Symmetry factor of 1.0 is
      used for the rotational entropy correction.

Note: Rotational entropy computed according to Herzberg
Infrared and Raman Spectra, Chapter V,1, Van Nostrand Reinhold, 1945
Point Group:  C1, Symmetry Number:   1
Rotational constants in cm-1:     0.404394     0.077946     0.071400

Vibrational entropy computed according to the QRRHO of S. Grimme
Chem.Eur.J. 2012 18 9955

-------
ENTROPY
-------

The entropy contributions are T*S = T*(S(el)+S(vib)+S(rot)+S(trans))
     S(el)   - electronic entropy
     S(vib)  - vibrational entropy
     S(rot)  - rotational entropy
     S(trans)- translational entropy
The entropies will be listed as multiplied by the temperature to get
units of energy

Electronic entropy                ...      0.00000000 Eh      0.00 kcal/mol
Vibrational entropy               ...      0.00680395 Eh      4.27 kcal/mol
Rotational entropy                ...      0.01238894 Eh      7.77 kcal/mol
Translational entropy             ...      0.01842822 Eh     11.56 kcal/mol
-----------------------------------------------------------------------
Final entropy term                ...      0.03762111 Eh     23.61 kcal/mol

In case the symmetry of your molecule has not been determined correctly
or in case you have a reason to use a different symmetry number we print
out the resulting rotational entropy values for sn=1,12 :
 --------------------------------------------------------
|  sn= 1 | S(rot)=       0.01238894 Eh      7.77 kcal/mol|
|  sn= 2 | S(rot)=       0.01173449 Eh      7.36 kcal/mol|
|  sn= 3 | S(rot)=       0.01135165 Eh      7.12 kcal/mol|
|  sn= 4 | S(rot)=       0.01108003 Eh      6.95 kcal/mol|
|  sn= 5 | S(rot)=       0.01086934 Eh      6.82 kcal/mol|
|  sn= 6 | S(rot)=       0.01069720 Eh      6.71 kcal/mol|
|  sn= 7 | S(rot)=       0.01055165 Eh      6.62 kcal/mol|
|  sn= 8 | S(rot)=       0.01042557 Eh      6.54 kcal/mol|
|  sn= 9 | S(rot)=       0.01031436 Eh      6.47 kcal/mol|
|  sn=10 | S(rot)=       0.01021488 Eh      6.41 kcal/mol|
|  sn=11 | S(rot)=       0.01012489 Eh      6.35 kcal/mol|
|  sn=12 | S(rot)=       0.01004274 Eh      6.30 kcal/mol|
 --------------------------------------------------------

-------------------
GIBBS FREE ENERGY
-------------------

The Gibbs free energy is G = H - T*S

                             ****ORCA TERMINATED NORMALLY****
TOTAL RUN TIME: 0 days 0 hours 4 minutes 0 seconds 49 msec
