                         Program Version 5.0.4 -  RELEASE  -
|  1> # ORCA 5.0.4 - /users/bwb16179/postgrad/2024_06/pKa_Reviewer_Comments/CREST_Confs/butylamine/butylamine_deprot_aq_7.inp # write input file
|  2> # Basic Mode
|  3> #
|  4> ! Opt Freq wB97X Def2-SVP D4 SlowConv TightSCF Defgrid2 Def2/J RIJCOSX
|  5>
|  6> %PAL NPROCS 4 END
|  7>
|  8> %maxcore 4500
|  9>
| 10> %geom
| 11> Maxiter 150
| 12> END
| 13>
| 14> * xyzfile 0 1 butylamine_deprot_aq_7.xyz
| 15>
| 16>                          ****END OF INPUT****
 Total Charge           Charge          ....    0
 Multiplicity           Mult            ....    1
 Number of Electrons    NEL             ....   42
Dispersion correction           -0.001386046
FINAL SINGLE POINT ENERGY      -213.588472697825
Dispersion correction            ... Starting D4
Dispersion correction           -0.001385324
FINAL SINGLE POINT ENERGY      -213.589778040984
Dispersion correction            ... Starting D4
Dispersion correction           -0.001386147
FINAL SINGLE POINT ENERGY      -213.590007695035
Dispersion correction            ... Starting D4
FINAL SINGLE POINT ENERGY      -213.590131206945
FINAL SINGLE POINT ENERGY      -213.590166693591
FINAL SINGLE POINT ENERGY      -213.590195845766
FINAL SINGLE POINT ENERGY      -213.590208559923
Dispersion correction           -0.001387771
FINAL SINGLE POINT ENERGY      -213.590214322131
Dispersion correction            ... Starting D4
Dispersion correction           -0.001387718
FINAL SINGLE POINT ENERGY      -213.590216298830
Dispersion correction            ... Starting D4
                    ***********************HURRAY********************

CARTESIAN COORDINATES (ANGSTROEM)
---------------------------------
  C     -2.433182    0.301975    0.140811
  C     -1.015957   -0.194360    0.400216
  H     -2.849810   -0.145936   -0.776257
  H     -2.451015    1.396169    0.010683
  H     -3.111196    0.053715    0.971727
  C     -0.047223    0.143048   -0.729797
  H     -1.027797   -1.289260    0.555580
  H     -0.642132    0.249375    1.339711
  C      1.360275   -0.402757   -0.518123
  H      0.014842    1.239781   -0.841038
  H     -0.445029   -0.254127   -1.681108
  N      1.982073    0.169180    0.666879
  H      1.978374   -0.133077   -1.390501
  H      1.312922   -1.514262   -0.506188
  H      2.964379   -0.089610    0.714527
  H      1.552211   -0.204938    1.510357

 Multiplicity           Mult            ....    1
 Number of Electrons    NEL             ....   42
 Basis Dimension        Dim             ....  125

ORBITAL ENERGIES
----------------

  NO   OCC          E(Eh)            E(eV)
   0   2.0000     -14.376808      -391.2128
   1   2.0000     -10.285392      -279.8797
   2   2.0000     -10.263021      -279.2710
   3   2.0000     -10.258990      -279.1613
   4   2.0000     -10.256992      -279.1069
   5   2.0000      -0.997640       -27.1472
   6   2.0000      -0.905546       -24.6412
   7   2.0000      -0.825321       -22.4581
   8   2.0000      -0.735894       -20.0247
   9   2.0000      -0.679307       -18.4849
  10   2.0000      -0.598847       -16.2954
  11   2.0000      -0.587088       -15.9755
  12   2.0000      -0.540727       -14.7139
  13   2.0000      -0.535169       -14.5627
  14   2.0000      -0.500554       -13.6208
  15   2.0000      -0.478682       -13.0256
  16   2.0000      -0.464480       -12.6391
  17   2.0000      -0.435339       -11.8462
  18   2.0000      -0.421841       -11.4789
  19   2.0000      -0.417304       -11.3554
  20   2.0000      -0.333763        -9.0822
  21   0.0000       0.143663         3.9093
  22   0.0000       0.164913         4.4875
  23   0.0000       0.174876         4.7586
  24   0.0000       0.187919         5.1135
  25   0.0000       0.211251         5.7484

MULLIKEN ATOMIC CHARGES
-----------------------
   0 C :   -0.024773
   1 C :   -0.090875
   2 H :    0.022197
   3 H :    0.025087
   4 H :    0.028231
   5 C :   -0.036230
   6 H :    0.010571
   7 H :    0.018884
   8 C :    0.075398
   9 H :    0.018162
  10 H :    0.009595
  11 N :   -0.257800
  12 H :    0.015650
  13 H :   -0.006660
  14 H :    0.098883
  15 H :    0.093682
Sum of atomic charges:    0.0000000

LOEWDIN ATOMIC CHARGES
----------------------
   0 C :   -0.062641
   1 C :   -0.050892
   2 H :    0.022776
   3 H :    0.024864
   4 H :    0.025151
   5 C :   -0.047775
   6 H :    0.018202
   7 H :    0.019757
   8 C :    0.012573
   9 H :    0.023758
  10 H :    0.020597
  11 N :   -0.127389
  12 H :    0.019757
  13 H :   -0.003018
  14 H :    0.054980
  15 H :    0.049302

  Mayer bond orders larger than 0.100000
B(  0-C ,  1-C ) :   1.0915 B(  0-C ,  2-H ) :   0.9757 B(  0-C ,  3-H ) :   0.9748
B(  0-C ,  4-H ) :   0.9743 B(  1-C ,  5-C ) :   1.0603 B(  1-C ,  6-H ) :   0.9561
B(  1-C ,  7-H ) :   0.9501 B(  5-C ,  8-C ) :   1.0746 B(  5-C ,  9-H ) :   0.9453
B(  5-C , 10-H ) :   0.9524 B(  8-C , 11-N ) :   1.0620 B(  8-C , 12-H ) :   0.9556
B(  8-C , 13-H ) :   0.9469 B( 11-N , 14-H ) :   0.9717 B( 11-N , 15-H ) :   0.9725

Dispersion correction           -0.001387677
FINAL SINGLE POINT ENERGY      -213.590217346161

DIPOLE MOMENT
-------------
                                X             Y             Z
Electronic contribution:      2.56022       0.15433       0.27578
Nuclear contribution   :     -2.43869      -0.62659      -0.19002
                        -----------------------------------------
Total Dipole Moment    :      0.12154      -0.47226       0.08576
                        -----------------------------------------
Magnitude (a.u.)       :      0.49513
Magnitude (Debye)      :      1.25852

Dispersion correction in the Hessian             ... Starting D4

VIBRATIONAL FREQUENCIES
-----------------------

Scaling factor for frequencies =  1.000000000  (already applied!)

   0:         0.00 cm**-1
   1:         0.00 cm**-1
   2:         0.00 cm**-1
   3:         0.00 cm**-1
   4:         0.00 cm**-1
   5:         0.00 cm**-1
   6:        92.37 cm**-1
   7:       138.36 cm**-1
   8:       224.14 cm**-1
   9:       248.27 cm**-1
  10:       281.48 cm**-1
  11:       360.10 cm**-1
  12:       510.34 cm**-1
  13:       750.39 cm**-1
  14:       832.76 cm**-1
  15:       844.78 cm**-1
  16:       874.25 cm**-1
  17:       960.67 cm**-1
  18:       990.82 cm**-1
  19:      1081.77 cm**-1
  20:      1089.27 cm**-1
  21:      1155.24 cm**-1
  22:      1164.91 cm**-1
  23:      1213.22 cm**-1
  24:      1262.27 cm**-1
  25:      1321.14 cm**-1
  26:      1324.96 cm**-1
  27:      1353.41 cm**-1
  28:      1401.69 cm**-1
  29:      1422.01 cm**-1
  30:      1447.39 cm**-1
  31:      1461.20 cm**-1
  32:      1474.28 cm**-1
  33:      1476.63 cm**-1
  34:      1485.94 cm**-1
  35:      1496.27 cm**-1
  36:      1646.80 cm**-1
  37:      2974.56 cm**-1
  38:      3050.19 cm**-1
  39:      3058.38 cm**-1
  40:      3059.47 cm**-1
  41:      3102.17 cm**-1
  42:      3108.18 cm**-1
  43:      3122.64 cm**-1
  44:      3152.76 cm**-1
  45:      3161.24 cm**-1
  46:      3568.96 cm**-1
  47:      3648.40 cm**-1

IR SPECTRUM
-----------

 Mode   freq       eps      Int      T**2         TX        TY        TZ
       cm**-1   L/(mol*cm) km/mol    a.u.
----------------------------------------------------------------------------
  6:     92.37   0.000071    0.36  0.000238  ( 0.010948  0.002732  0.010542)
  7:    138.36   0.001868    9.44  0.004212  ( 0.059566  0.007811 -0.024563)
  8:    224.14   0.005851   29.57  0.008146  ( 0.082626  0.008694 -0.035256)
  9:    248.27   0.001407    7.11  0.001769  ( 0.040373  0.005719 -0.010291)
 10:    281.48   0.002364   11.94  0.002620  (-0.050689 -0.004937  0.005165)
 11:    360.10   0.001342    6.78  0.001163  (-0.032391 -0.010626 -0.000816)
 12:    510.34   0.001129    5.71  0.000691  ( 0.019107  0.014284  0.011020)
 13:    750.39   0.000093    0.47  0.000039  ( 0.000484  0.005171  0.003423)
 14:    832.76   0.011860   59.94  0.004445  ( 0.011966  0.058570  0.029510)
 15:    844.78   0.013122   66.31  0.004847  (-0.019150 -0.061596 -0.026199)
 16:    874.25   0.000676    3.42  0.000241  (-0.003125 -0.015217 -0.000165)
 17:    960.67   0.000763    3.85  0.000248  ( 0.004096 -0.010157 -0.011305)
 18:    990.82   0.001267    6.40  0.000399  (-0.010472 -0.015123 -0.007792)
 19:   1081.77   0.000190    0.96  0.000055  (-0.007082 -0.000509 -0.002104)
 20:   1089.27   0.000382    1.93  0.000110  (-0.002712 -0.004865  0.008863)
 21:   1155.24   0.001805    9.12  0.000488  ( 0.014208  0.003141  0.016613)
 22:   1164.91   0.002300   11.62  0.000616  ( 0.000717  0.024274  0.005143)
 23:   1213.22   0.000146    0.74  0.000038  ( 0.000312 -0.003988 -0.004651)
 24:   1262.27   0.000291    1.47  0.000072  (-0.005232  0.006530 -0.001403)
 25:   1321.14   0.000171    0.87  0.000041  (-0.006064 -0.001334 -0.001399)
 26:   1324.96   0.000024    0.12  0.000006  ( 0.000632  0.000207 -0.002303)
 27:   1353.41   0.000957    4.84  0.000221  ( 0.005786  0.002155  0.013513)
 28:   1401.69   0.000401    2.03  0.000089  (-0.008426  0.001194 -0.004097)
 29:   1422.01   0.000422    2.13  0.000093  (-0.003000 -0.006178 -0.006740)
 30:   1447.39   0.002373   11.99  0.000512  ( 0.018857  0.002333  0.012275)
 31:   1461.20   0.001014    5.12  0.000216  ( 0.008995 -0.006977  0.009322)
 32:   1474.28   0.000289    1.46  0.000061  ( 0.006515  0.004272  0.000615)
 33:   1476.63   0.001649    8.33  0.000348  (-0.002169 -0.015623 -0.009983)
 34:   1485.94   0.001073    5.42  0.000225  (-0.002357 -0.007288  0.012909)
 35:   1496.27   0.000619    3.13  0.000129  ( 0.010580 -0.001732  0.003749)
 36:   1646.80   0.007007   35.41  0.001328  ( 0.020061 -0.012087  0.027915)
 37:   2974.56   0.016450   83.13  0.001726  ( 0.002399 -0.039509 -0.012610)
 38:   3050.19   0.005494   27.76  0.000562  (-0.009001  0.016918 -0.013958)
 39:   3058.38   0.003065   15.49  0.000313  (-0.005692 -0.005678  0.015753)
 40:   3059.47   0.007989   40.37  0.000815  ( 0.022109 -0.009567  0.015315)
 41:   3102.17   0.000427    2.16  0.000043  (-0.004560 -0.003647 -0.002983)
 42:   3108.18   0.007676   38.79  0.000771  (-0.012850 -0.006679  0.023685)
 43:   3122.64   0.007796   39.40  0.000779  (-0.007845 -0.024681 -0.010410)
 44:   3152.76   0.007323   37.01  0.000725  (-0.005321 -0.022385 -0.013981)
 45:   3161.24   0.005048   25.51  0.000498  (-0.008866 -0.009131  0.018340)
 46:   3568.96   0.000127    0.64  0.000011  ( 0.001146 -0.002883  0.001209)
 47:   3648.40   0.000471    2.38  0.000040  ( 0.005724  0.000256 -0.002728)

--------------------------
THERMOCHEMISTRY AT 298.15K
--------------------------

Temperature         ... 298.15 K
Pressure            ... 1.00 atm
Total Mass          ... 73.14 AMU

Throughout the following assumptions are being made:
  (1) The electronic state is orbitally nondegenerate
  (2) There are no thermally accessible electronically excited states
  (3) Hindered rotations indicated by low frequency modes are not
      treated as such but are treated as vibrations and this may
      cause some error
  (4) All equations used are the standard statistical mechanics
      equations for an ideal gas
  (5) All vibrations are strictly harmonic

freq.      92.37  E(vib)   ...       0.47
freq.     138.36  E(vib)   ...       0.42
freq.     224.14  E(vib)   ...       0.33
freq.     248.27  E(vib)   ...       0.31
freq.     281.48  E(vib)   ...       0.28
freq.     360.10  E(vib)   ...       0.22
freq.     510.34  E(vib)   ...       0.14
freq.     750.39  E(vib)   ...       0.06
freq.     832.76  E(vib)   ...       0.04
freq.     844.78  E(vib)   ...       0.04
freq.     874.25  E(vib)   ...       0.04
freq.     960.67  E(vib)   ...       0.03
freq.     990.82  E(vib)   ...       0.02
freq.    1081.77  E(vib)   ...       0.02
freq.    1089.27  E(vib)   ...       0.02
freq.    1155.24  E(vib)   ...       0.01
freq.    1164.91  E(vib)   ...       0.01
freq.    1213.22  E(vib)   ...       0.01
freq.    1262.27  E(vib)   ...       0.01
freq.    1321.14  E(vib)   ...       0.01
freq.    1324.96  E(vib)   ...       0.01
freq.    1353.41  E(vib)   ...       0.01
freq.    1401.69  E(vib)   ...       0.00
freq.    1422.01  E(vib)   ...       0.00
freq.    1447.39  E(vib)   ...       0.00
freq.    1461.20  E(vib)   ...       0.00
freq.    1474.28  E(vib)   ...       0.00
freq.    1476.63  E(vib)   ...       0.00
freq.    1485.94  E(vib)   ...       0.00
freq.    1496.27  E(vib)   ...       0.00
freq.    1646.80  E(vib)   ...       0.00
freq.    2974.56  E(vib)   ...       0.00
freq.    3050.19  E(vib)   ...       0.00
freq.    3058.38  E(vib)   ...       0.00
freq.    3059.47  E(vib)   ...       0.00
freq.    3102.17  E(vib)   ...       0.00
freq.    3108.18  E(vib)   ...       0.00
freq.    3122.64  E(vib)   ...       0.00
freq.    3152.76  E(vib)   ...       0.00
freq.    3161.24  E(vib)   ...       0.00
freq.    3568.96  E(vib)   ...       0.00
freq.    3648.40  E(vib)   ...       0.00

------------
INNER ENERGY
------------

The inner energy is: U= E(el) + E(ZPE) + E(vib) + E(rot) + E(trans)
    E(el)   - is the total energy from the electronic structure calculation
              = E(kin-el) + E(nuc-el) + E(el-el) + E(nuc-nuc)
    E(ZPE)  - the the zero temperature vibrational energy from the frequency calculation
    E(vib)  - the the finite temperature correction to E(ZPE) due to population
              of excited vibrational states
    E(rot)  - is the rotational thermal energy
    E(trans)- is the translational thermal energy

Summary of contributions to the inner energy U:
Electronic energy                ...   -213.59021735 Eh
Zero point energy                ...      0.15125687 Eh      94.91 kcal/mol
Thermal vibrational correction   ...      0.00400743 Eh       2.51 kcal/mol
Thermal rotational correction    ...      0.00141627 Eh       0.89 kcal/mol
Thermal translational correction ...      0.00141627 Eh       0.89 kcal/mol
-----------------------------------------------------------------------
Total thermal energy                   -213.43212050 Eh

Summary of corrections to the electronic energy:
(perhaps to be used in another calculation)
Total thermal correction                  0.00683997 Eh       4.29 kcal/mol
Non-thermal (ZPE) correction              0.15125687 Eh      94.91 kcal/mol
-----------------------------------------------------------------------
Total correction                          0.15809685 Eh      99.21 kcal/mol

--------
ENTHALPY
--------

The enthalpy is H = U + kB*T
                kB is Boltzmann's constant
Total free energy                 ...   -213.43212050 Eh
Thermal Enthalpy correction       ...      0.00094421 Eh       0.59 kcal/mol
-----------------------------------------------------------------------
Total Enthalpy                    ...   -213.43117629 Eh

Note: Only C1 symmetry has been detected, increase convergence thresholds
      if your molecule has a higher symmetry. Symmetry factor of 1.0 is
      used for the rotational entropy correction.

Note: Rotational entropy computed according to Herzberg
Infrared and Raman Spectra, Chapter V,1, Van Nostrand Reinhold, 1945
Point Group:  C1, Symmetry Number:   1
Rotational constants in cm-1:     0.408891     0.078392     0.071780

Vibrational entropy computed according to the QRRHO of S. Grimme
Chem.Eur.J. 2012 18 9955

-------
ENTROPY
-------

The entropy contributions are T*S = T*(S(el)+S(vib)+S(rot)+S(trans))
     S(el)   - electronic entropy
     S(vib)  - vibrational entropy
     S(rot)  - rotational entropy
     S(trans)- translational entropy
The entropies will be listed as multiplied by the temperature to get
units of energy

Electronic entropy                ...      0.00000000 Eh      0.00 kcal/mol
Vibrational entropy               ...      0.00684674 Eh      4.30 kcal/mol
Rotational entropy                ...      0.01237852 Eh      7.77 kcal/mol
Translational entropy             ...      0.01842822 Eh     11.56 kcal/mol
-----------------------------------------------------------------------
Final entropy term                ...      0.03765348 Eh     23.63 kcal/mol

In case the symmetry of your molecule has not been determined correctly
or in case you have a reason to use a different symmetry number we print
out the resulting rotational entropy values for sn=1,12 :
 --------------------------------------------------------
|  sn= 1 | S(rot)=       0.01237852 Eh      7.77 kcal/mol|
|  sn= 2 | S(rot)=       0.01172407 Eh      7.36 kcal/mol|
|  sn= 3 | S(rot)=       0.01134124 Eh      7.12 kcal/mol|
|  sn= 4 | S(rot)=       0.01106961 Eh      6.95 kcal/mol|
|  sn= 5 | S(rot)=       0.01085892 Eh      6.81 kcal/mol|
|  sn= 6 | S(rot)=       0.01068678 Eh      6.71 kcal/mol|
|  sn= 7 | S(rot)=       0.01054123 Eh      6.61 kcal/mol|
|  sn= 8 | S(rot)=       0.01041516 Eh      6.54 kcal/mol|
|  sn= 9 | S(rot)=       0.01030395 Eh      6.47 kcal/mol|
|  sn=10 | S(rot)=       0.01020447 Eh      6.40 kcal/mol|
|  sn=11 | S(rot)=       0.01011448 Eh      6.35 kcal/mol|
|  sn=12 | S(rot)=       0.01003232 Eh      6.30 kcal/mol|
 --------------------------------------------------------

-------------------
GIBBS FREE ENERGY
-------------------

The Gibbs free energy is G = H - T*S

                             ****ORCA TERMINATED NORMALLY****
TOTAL RUN TIME: 0 days 0 hours 4 minutes 47 seconds 86 msec
