                         Program Version 5.0.4 -  RELEASE  -
|  1> # ORCA 5.0.4 - /users/bwb16179/postgrad/2024_06/pKa_Reviewer_Comments/CREST_Confs/butylamine/butylamine_deprot_aq_5.inp # write input file
|  2> # Basic Mode
|  3> #
|  4> ! Opt Freq wB97X Def2-SVP D4 SlowConv TightSCF Defgrid2 Def2/J RIJCOSX
|  5>
|  6> %PAL NPROCS 4 END
|  7>
|  8> %maxcore 4500
|  9>
| 10> %geom
| 11> Maxiter 150
| 12> END
| 13>
| 14> * xyzfile 0 1 butylamine_deprot_aq_5.xyz
| 15>
| 16>                          ****END OF INPUT****
 Total Charge           Charge          ....    0
 Multiplicity           Mult            ....    1
 Number of Electrons    NEL             ....   42
Dispersion correction           -0.001348093
FINAL SINGLE POINT ENERGY      -213.589001112543
Dispersion correction            ... Starting D4
Dispersion correction           -0.001345396
FINAL SINGLE POINT ENERGY      -213.590237771397
Dispersion correction            ... Starting D4
Dispersion correction           -0.001345228
FINAL SINGLE POINT ENERGY      -213.590374890803
Dispersion correction            ... Starting D4
Dispersion correction           -0.001345401
FINAL SINGLE POINT ENERGY      -213.590421033242
Dispersion correction            ... Starting D4
Dispersion correction           -0.001345472
FINAL SINGLE POINT ENERGY      -213.590425090734
Dispersion correction            ... Starting D4
                    ***********************HURRAY********************

CARTESIAN COORDINATES (ANGSTROEM)
---------------------------------
  C     -2.550707    0.355346   -0.014461
  C     -1.289232   -0.499539   -0.022792
  H     -2.595324    0.988634    0.886427
  H     -3.462032   -0.261494   -0.033222
  H     -2.582257    1.024697   -0.889171
  C     -0.007268    0.325531    0.003574
  H     -1.285543   -1.145947   -0.918586
  H     -1.300539   -1.185580    0.843038
  C      1.259665   -0.518356    0.004090
  H     -0.009506    0.974022    0.900413
  H      0.028833    1.006974   -0.863763
  N      2.444071    0.323699   -0.014944
  H      1.267687   -1.147306   -0.903528
  H      1.217781   -1.223124    0.863678
  H      3.288985   -0.241890   -0.039481
  H      2.494985    0.874578    0.840293

 Multiplicity           Mult            ....    1
 Number of Electrons    NEL             ....   42
 Basis Dimension        Dim             ....  125

ORBITAL ENERGIES
----------------

  NO   OCC          E(Eh)            E(eV)
   0   2.0000     -14.376284      -391.1986
   1   2.0000     -10.284987      -279.8687
   2   2.0000     -10.263741      -279.2906
   3   2.0000     -10.259307      -279.1699
   4   2.0000     -10.258072      -279.1363
   5   2.0000      -0.996984       -27.1293
   6   2.0000      -0.908782       -24.7292
   7   2.0000      -0.824074       -22.4242
   8   2.0000      -0.728310       -19.8183
   9   2.0000      -0.691498       -18.8166
  10   2.0000      -0.597746       -16.2655
  11   2.0000      -0.577689       -15.7197
  12   2.0000      -0.551677       -15.0119
  13   2.0000      -0.526683       -14.3318
  14   2.0000      -0.511586       -13.9210
  15   2.0000      -0.479237       -13.0407
  16   2.0000      -0.452868       -12.3232
  17   2.0000      -0.432377       -11.7656
  18   2.0000      -0.429616       -11.6904
  19   2.0000      -0.419674       -11.4199
  20   2.0000      -0.332896        -9.0585
  21   0.0000       0.146199         3.9783
  22   0.0000       0.158435         4.3112
  23   0.0000       0.176684         4.8078
  24   0.0000       0.186672         5.0796
  25   0.0000       0.201286         5.4773

MULLIKEN ATOMIC CHARGES
-----------------------
   0 C :   -0.023854
   1 C :   -0.067702
   2 H :    0.021930
   3 H :    0.028174
   4 H :    0.024376
   5 C :   -0.067627
   6 H :    0.016846
   7 H :    0.014335
   8 C :    0.082315
   9 H :    0.002941
  10 H :    0.022408
  11 N :   -0.244806
  12 H :    0.009224
  13 H :   -0.008021
  14 H :    0.096213
  15 H :    0.093246
Sum of atomic charges:    0.0000000

LOEWDIN ATOMIC CHARGES
----------------------
   0 C :   -0.063195
   1 C :   -0.045877
   2 H :    0.023057
   3 H :    0.025315
   4 H :    0.024196
   5 C :   -0.048726
   6 H :    0.021157
   7 H :    0.019563
   8 C :    0.011789
   9 H :    0.016029
  10 H :    0.024251
  11 N :   -0.126582
  12 H :    0.017050
  13 H :   -0.003563
  14 H :    0.054162
  15 H :    0.051374

  Mayer bond orders larger than 0.100000
B(  0-C ,  1-C ) :   1.0878 B(  0-C ,  2-H ) :   0.9750 B(  0-C ,  3-H ) :   0.9738
B(  0-C ,  4-H ) :   0.9751 B(  1-C ,  5-C ) :   1.0569 B(  1-C ,  6-H ) :   0.9553
B(  1-C ,  7-H ) :   0.9535 B(  5-C ,  8-C ) :   1.0668 B(  5-C ,  9-H ) :   0.9530
B(  5-C , 10-H ) :   0.9506 B(  8-C , 11-N ) :   1.0706 B(  8-C , 12-H ) :   0.9501
B(  8-C , 13-H ) :   0.9501 B( 11-N , 14-H ) :   0.9711 B( 11-N , 15-H ) :   0.9744

Dispersion correction           -0.001345499
FINAL SINGLE POINT ENERGY      -213.590427222178

DIPOLE MOMENT
-------------
                                X             Y             Z
Electronic contribution:      2.86644       0.05679      -0.21836
Nuclear contribution   :     -2.76939      -0.33461       0.62569
                        -----------------------------------------
Total Dipole Moment    :      0.09705      -0.27781       0.40733
                        -----------------------------------------
Magnitude (a.u.)       :      0.50251
Magnitude (Debye)      :      1.27728

Dispersion correction in the Hessian             ... Starting D4

VIBRATIONAL FREQUENCIES
-----------------------

Scaling factor for frequencies =  1.000000000  (already applied!)

   0:         0.00 cm**-1
   1:         0.00 cm**-1
   2:         0.00 cm**-1
   3:         0.00 cm**-1
   4:         0.00 cm**-1
   5:         0.00 cm**-1
   6:       127.57 cm**-1
   7:       133.62 cm**-1
   8:       186.58 cm**-1
   9:       262.07 cm**-1
  10:       279.98 cm**-1
  11:       406.94 cm**-1
  12:       447.64 cm**-1
  13:       754.13 cm**-1
  14:       810.87 cm**-1
  15:       848.56 cm**-1
  16:       921.97 cm**-1
  17:       960.19 cm**-1
  18:      1013.87 cm**-1
  19:      1083.72 cm**-1
  20:      1108.08 cm**-1
  21:      1145.36 cm**-1
  22:      1169.66 cm**-1
  23:      1227.50 cm**-1
  24:      1265.51 cm**-1
  25:      1311.65 cm**-1
  26:      1323.76 cm**-1
  27:      1339.89 cm**-1
  28:      1394.76 cm**-1
  29:      1422.77 cm**-1
  30:      1460.03 cm**-1
  31:      1473.67 cm**-1
  32:      1479.94 cm**-1
  33:      1480.89 cm**-1
  34:      1490.92 cm**-1
  35:      1507.01 cm**-1
  36:      1644.20 cm**-1
  37:      2976.01 cm**-1
  38:      3046.84 cm**-1
  39:      3056.58 cm**-1
  40:      3061.26 cm**-1
  41:      3088.54 cm**-1
  42:      3101.76 cm**-1
  43:      3121.09 cm**-1
  44:      3154.97 cm**-1
  45:      3163.10 cm**-1
  46:      3560.83 cm**-1
  47:      3644.79 cm**-1

IR SPECTRUM
-----------

 Mode   freq       eps      Int      T**2         TX        TY        TZ
       cm**-1   L/(mol*cm) km/mol    a.u.
----------------------------------------------------------------------------
  6:    127.57   0.000596    3.01  0.001459  (-0.020264  0.025058  0.020506)
  7:    133.62   0.000447    2.26  0.001044  (-0.008063 -0.027204 -0.015463)
  8:    186.58   0.000304    1.54  0.000509  (-0.004996  0.019298  0.010542)
  9:    262.07   0.008128   41.07  0.009678  (-0.067609  0.051654  0.049385)
 10:    279.98   0.000115    0.58  0.000129  (-0.008906  0.004591  0.005323)
 11:    406.94   0.000006    0.03  0.000005  ( 0.000358  0.002087 -0.000518)
 12:    447.64   0.002037   10.30  0.001420  (-0.033750  0.001502  0.016705)
 13:    754.13   0.000630    3.18  0.000261  (-0.001889  0.003161 -0.015721)
 14:    810.87   0.006736   34.04  0.002592  ( 0.021604  0.040178 -0.022610)
 15:    848.56   0.020847  105.35  0.007667  (-0.040217 -0.059457  0.050142)
 16:    921.97   0.000329    1.66  0.000111  (-0.009603  0.000585 -0.004342)
 17:    960.19   0.000925    4.68  0.000301  ( 0.005142  0.012177 -0.011227)
 18:   1013.87   0.000860    4.34  0.000265  ( 0.009768  0.012584 -0.003283)
 19:   1083.72   0.000117    0.59  0.000034  ( 0.000366 -0.003875  0.004319)
 20:   1108.08   0.000271    1.37  0.000076  ( 0.004845  0.002041 -0.006981)
 21:   1145.36   0.002821   14.26  0.000769  (-0.025189 -0.011136  0.003199)
 22:   1169.66   0.001599    8.08  0.000427  (-0.001777 -0.014588  0.014513)
 23:   1227.50   0.000132    0.67  0.000034  (-0.004403 -0.003447 -0.001508)
 24:   1265.51   0.000393    1.99  0.000097  ( 0.008282 -0.000013  0.005318)
 25:   1311.65   0.000058    0.29  0.000014  ( 0.003126 -0.000875 -0.001773)
 26:   1323.76   0.000164    0.83  0.000039  ( 0.005966  0.000708  0.001585)
 27:   1339.89   0.000345    1.74  0.000080  ( 0.008077  0.003492 -0.001715)
 28:   1394.76   0.000153    0.78  0.000034  ( 0.005121 -0.002591  0.001183)
 29:   1422.77   0.000393    1.98  0.000086  (-0.001889  0.009043  0.000882)
 30:   1460.03   0.003549   17.94  0.000759  ( 0.025677  0.009744  0.002084)
 31:   1473.67   0.000010    0.05  0.000002  ( 0.000738  0.001222 -0.000226)
 32:   1479.94   0.000202    1.02  0.000043  (-0.005181  0.001054  0.003833)
 33:   1480.89   0.001565    7.91  0.000330  (-0.000946  0.000875 -0.018116)
 34:   1490.92   0.000770    3.89  0.000161  ( 0.002947  0.012338  0.000566)
 35:   1507.01   0.000459    2.32  0.000095  (-0.008989  0.003563  0.001283)
 36:   1644.20   0.005517   27.88  0.001047  (-0.024316 -0.005767 -0.020559)
 37:   2976.01   0.016320   82.48  0.001711  (-0.006769 -0.034763  0.021378)
 38:   3046.84   0.003356   16.96  0.000344  ( 0.003069  0.016524  0.007827)
 39:   3056.58   0.010136   51.22  0.001035  (-0.005661  0.031662  0.000544)
 40:   3061.26   0.003525   17.81  0.000359  (-0.017945  0.005979  0.001245)
 41:   3088.54   0.005660   28.60  0.000572  ( 0.000455 -0.015371 -0.018313)
 42:   3101.76   0.000219    1.11  0.000022  (-0.000428  0.001672  0.004369)
 43:   3121.09   0.010210   51.60  0.001021  ( 0.000322 -0.002325  0.031865)
 44:   3154.97   0.007524   38.02  0.000744  ( 0.001520  0.001175  0.027212)
 45:   3163.10   0.005110   25.82  0.000504  ( 0.014209  0.017289 -0.001830)
 46:   3560.83   0.000103    0.52  0.000009  (-0.000434  0.002037 -0.002162)
 47:   3644.79   0.000327    1.65  0.000028  (-0.002726  0.003972  0.002184)

--------------------------
THERMOCHEMISTRY AT 298.15K
--------------------------

Temperature         ... 298.15 K
Pressure            ... 1.00 atm
Total Mass          ... 73.14 AMU

Throughout the following assumptions are being made:
  (1) The electronic state is orbitally nondegenerate
  (2) There are no thermally accessible electronically excited states
  (3) Hindered rotations indicated by low frequency modes are not
      treated as such but are treated as vibrations and this may
      cause some error
  (4) All equations used are the standard statistical mechanics
      equations for an ideal gas
  (5) All vibrations are strictly harmonic

freq.     127.57  E(vib)   ...       0.43
freq.     133.62  E(vib)   ...       0.42
freq.     186.58  E(vib)   ...       0.37
freq.     262.07  E(vib)   ...       0.29
freq.     279.98  E(vib)   ...       0.28
freq.     406.94  E(vib)   ...       0.19
freq.     447.64  E(vib)   ...       0.17
freq.     754.13  E(vib)   ...       0.06
freq.     810.87  E(vib)   ...       0.05
freq.     848.56  E(vib)   ...       0.04
freq.     921.97  E(vib)   ...       0.03
freq.     960.19  E(vib)   ...       0.03
freq.    1013.87  E(vib)   ...       0.02
freq.    1083.72  E(vib)   ...       0.02
freq.    1108.08  E(vib)   ...       0.02
freq.    1145.36  E(vib)   ...       0.01
freq.    1169.66  E(vib)   ...       0.01
freq.    1227.50  E(vib)   ...       0.01
freq.    1265.51  E(vib)   ...       0.01
freq.    1311.65  E(vib)   ...       0.01
freq.    1323.76  E(vib)   ...       0.01
freq.    1339.89  E(vib)   ...       0.01
freq.    1394.76  E(vib)   ...       0.00
freq.    1422.77  E(vib)   ...       0.00
freq.    1460.03  E(vib)   ...       0.00
freq.    1473.67  E(vib)   ...       0.00
freq.    1479.94  E(vib)   ...       0.00
freq.    1480.89  E(vib)   ...       0.00
freq.    1490.92  E(vib)   ...       0.00
freq.    1507.01  E(vib)   ...       0.00
freq.    1644.20  E(vib)   ...       0.00
freq.    2976.01  E(vib)   ...       0.00
freq.    3046.84  E(vib)   ...       0.00
freq.    3056.58  E(vib)   ...       0.00
freq.    3061.26  E(vib)   ...       0.00
freq.    3088.54  E(vib)   ...       0.00
freq.    3101.76  E(vib)   ...       0.00
freq.    3121.09  E(vib)   ...       0.00
freq.    3154.97  E(vib)   ...       0.00
freq.    3163.10  E(vib)   ...       0.00
freq.    3560.83  E(vib)   ...       0.00
freq.    3644.79  E(vib)   ...       0.00

------------
INNER ENERGY
------------

The inner energy is: U= E(el) + E(ZPE) + E(vib) + E(rot) + E(trans)
    E(el)   - is the total energy from the electronic structure calculation
              = E(kin-el) + E(nuc-el) + E(el-el) + E(nuc-nuc)
    E(ZPE)  - the the zero temperature vibrational energy from the frequency calculation
    E(vib)  - the the finite temperature correction to E(ZPE) due to population
              of excited vibrational states
    E(rot)  - is the rotational thermal energy
    E(trans)- is the translational thermal energy

Summary of contributions to the inner energy U:
Electronic energy                ...   -213.59042722 Eh
Zero point energy                ...      0.15140492 Eh      95.01 kcal/mol
Thermal vibrational correction   ...      0.00398048 Eh       2.50 kcal/mol
Thermal rotational correction    ...      0.00141627 Eh       0.89 kcal/mol
Thermal translational correction ...      0.00141627 Eh       0.89 kcal/mol
-----------------------------------------------------------------------
Total thermal energy                   -213.43220928 Eh

Summary of corrections to the electronic energy:
(perhaps to be used in another calculation)
Total thermal correction                  0.00681302 Eh       4.28 kcal/mol
Non-thermal (ZPE) correction              0.15140492 Eh      95.01 kcal/mol
-----------------------------------------------------------------------
Total correction                          0.15821794 Eh      99.28 kcal/mol

--------
ENTHALPY
--------

The enthalpy is H = U + kB*T
                kB is Boltzmann's constant
Total free energy                 ...   -213.43220928 Eh
Thermal Enthalpy correction       ...      0.00094421 Eh       0.59 kcal/mol
-----------------------------------------------------------------------
Total Enthalpy                    ...   -213.43126507 Eh

Note: Only C1 symmetry has been detected, increase convergence thresholds
      if your molecule has a higher symmetry. Symmetry factor of 1.0 is
      used for the rotational entropy correction.

Note: Rotational entropy computed according to Herzberg
Infrared and Raman Spectra, Chapter V,1, Van Nostrand Reinhold, 1945
Point Group:  C1, Symmetry Number:   1
Rotational constants in cm-1:     0.603208     0.065566     0.062173

Vibrational entropy computed according to the QRRHO of S. Grimme
Chem.Eur.J. 2012 18 9955

-------
ENTROPY
-------

The entropy contributions are T*S = T*(S(el)+S(vib)+S(rot)+S(trans))
     S(el)   - electronic entropy
     S(vib)  - vibrational entropy
     S(rot)  - rotational entropy
     S(trans)- translational entropy
The entropies will be listed as multiplied by the temperature to get
units of energy

Electronic entropy                ...      0.00000000 Eh      0.00 kcal/mol
Vibrational entropy               ...      0.00680493 Eh      4.27 kcal/mol
Rotational entropy                ...      0.01234715 Eh      7.75 kcal/mol
Translational entropy             ...      0.01842822 Eh     11.56 kcal/mol
-----------------------------------------------------------------------
Final entropy term                ...      0.03758030 Eh     23.58 kcal/mol

In case the symmetry of your molecule has not been determined correctly
or in case you have a reason to use a different symmetry number we print
out the resulting rotational entropy values for sn=1,12 :
 --------------------------------------------------------
|  sn= 1 | S(rot)=       0.01234715 Eh      7.75 kcal/mol|
|  sn= 2 | S(rot)=       0.01169269 Eh      7.34 kcal/mol|
|  sn= 3 | S(rot)=       0.01130986 Eh      7.10 kcal/mol|
|  sn= 4 | S(rot)=       0.01103823 Eh      6.93 kcal/mol|
|  sn= 5 | S(rot)=       0.01082754 Eh      6.79 kcal/mol|
|  sn= 6 | S(rot)=       0.01065540 Eh      6.69 kcal/mol|
|  sn= 7 | S(rot)=       0.01050985 Eh      6.60 kcal/mol|
|  sn= 8 | S(rot)=       0.01038378 Eh      6.52 kcal/mol|
|  sn= 9 | S(rot)=       0.01027257 Eh      6.45 kcal/mol|
|  sn=10 | S(rot)=       0.01017309 Eh      6.38 kcal/mol|
|  sn=11 | S(rot)=       0.01008310 Eh      6.33 kcal/mol|
|  sn=12 | S(rot)=       0.01000094 Eh      6.28 kcal/mol|
 --------------------------------------------------------

-------------------
GIBBS FREE ENERGY
-------------------

The Gibbs free energy is G = H - T*S

                             ****ORCA TERMINATED NORMALLY****
TOTAL RUN TIME: 0 days 0 hours 3 minutes 31 seconds 745 msec
