                         Program Version 5.0.4 -  RELEASE  -
|  1> # ORCA 5.0.4 - /users/bwb16179/postgrad/2024_06/pKa_Reviewer_Comments/CREST_Confs/butylamine/butylamine_deprot_aq_13.inp # write input file
|  2> # Basic Mode
|  3> #
|  4> ! Opt Freq wB97X Def2-SVP D4 SlowConv TightSCF Defgrid2 Def2/J RIJCOSX
|  5>
|  6> %PAL NPROCS 4 END
|  7>
|  8> %maxcore 4500
|  9>
| 10> %geom
| 11> Maxiter 150
| 12> END
| 13>
| 14> * xyzfile 0 1 butylamine_deprot_aq_13.xyz
| 15>
| 16>                          ****END OF INPUT****
 Total Charge           Charge          ....    0
 Multiplicity           Mult            ....    1
 Number of Electrons    NEL             ....   42
Dispersion correction           -0.001459057
FINAL SINGLE POINT ENERGY      -213.587568208811
Dispersion correction            ... Starting D4
Dispersion correction           -0.001447214
FINAL SINGLE POINT ENERGY      -213.589032576336
Dispersion correction            ... Starting D4
Dispersion correction           -0.001451387
FINAL SINGLE POINT ENERGY      -213.589322502222
Dispersion correction            ... Starting D4
FINAL SINGLE POINT ENERGY      -213.589429176493
FINAL SINGLE POINT ENERGY      -213.589469891975
FINAL SINGLE POINT ENERGY      -213.589488571849
Dispersion correction           -0.001451636
FINAL SINGLE POINT ENERGY      -213.589502831821
Dispersion correction            ... Starting D4
Dispersion correction           -0.001451679
FINAL SINGLE POINT ENERGY      -213.589506680987
Dispersion correction            ... Starting D4
                    ***********************HURRAY********************

CARTESIAN COORDINATES (ANGSTROEM)
---------------------------------
  C     -1.657298    0.886702    0.394966
  C     -1.277886   -0.541163    0.012302
  H     -1.840132    1.497196   -0.505787
  H     -0.848243    1.361108    0.967305
  H     -2.579179    0.905016    0.997533
  C     -0.013160   -0.669269   -0.843506
  H     -2.118540   -1.001521   -0.535234
  H     -1.149272   -1.148077    0.926667
  C      1.312543   -0.568022   -0.092737
  H     -0.034737    0.087107   -1.651636
  H     -0.021695   -1.647192   -1.354644
  N      1.514779    0.734464    0.524682
  H      2.127317   -0.854351   -0.791931
  H      1.318180   -1.327636    0.708961
  H      1.595756    1.455307   -0.190671
  H      2.384594    0.751053    1.051598

 Multiplicity           Mult            ....    1
 Number of Electrons    NEL             ....   42
 Basis Dimension        Dim             ....  125

ORBITAL ENERGIES
----------------

  NO   OCC          E(Eh)            E(eV)
   0   2.0000     -14.380556      -391.3148
   1   2.0000     -10.287647      -279.9411
   2   2.0000     -10.260584      -279.2047
   3   2.0000     -10.256498      -279.0935
   4   2.0000     -10.243250      -278.7330
   5   2.0000      -0.999879       -27.2081
   6   2.0000      -0.898766       -24.4567
   7   2.0000      -0.821242       -22.3471
   8   2.0000      -0.733311       -19.9544
   9   2.0000      -0.678037       -18.4503
  10   2.0000      -0.596178       -16.2228
  11   2.0000      -0.573554       -15.6072
  12   2.0000      -0.557397       -15.1675
  13   2.0000      -0.513064       -13.9612
  14   2.0000      -0.509288       -13.8584
  15   2.0000      -0.476418       -12.9640
  16   2.0000      -0.450688       -12.2638
  17   2.0000      -0.429498       -11.6872
  18   2.0000      -0.423042       -11.5116
  19   2.0000      -0.413897       -11.2627
  20   2.0000      -0.331734        -9.0269
  21   0.0000       0.141471         3.8496
  22   0.0000       0.174812         4.7569
  23   0.0000       0.177617         4.8332
  24   0.0000       0.193494         5.2652
  25   0.0000       0.215118         5.8537

MULLIKEN ATOMIC CHARGES
-----------------------
   0 C :   -0.040714
   1 C :   -0.042622
   2 H :    0.008839
   3 H :    0.036299
   4 H :    0.019815
   5 C :   -0.059233
   6 H :    0.015186
   7 H :    0.009380
   8 C :    0.070523
   9 H :    0.004516
  10 H :    0.016941
  11 N :   -0.245921
  12 H :    0.001208
  13 H :    0.010474
  14 H :    0.095622
  15 H :    0.099687
Sum of atomic charges:    0.0000000

LOEWDIN ATOMIC CHARGES
----------------------
   0 C :   -0.071055
   1 C :   -0.042570
   2 H :    0.017234
   3 H :    0.021973
   4 H :    0.021341
   5 C :   -0.049699
   6 H :    0.020453
   7 H :    0.020831
   8 C :    0.011986
   9 H :    0.016874
  10 H :    0.025823
  11 N :   -0.117337
  12 H :   -0.000571
  13 H :    0.016916
  14 H :    0.052447
  15 H :    0.055357

  Mayer bond orders larger than 0.100000
B(  0-C ,  1-C ) :   1.0838 B(  0-C ,  2-H ) :   0.9741 B(  0-C ,  3-H ) :   0.9640
B(  0-C ,  4-H ) :   0.9720 B(  1-C ,  5-C ) :   1.0571 B(  1-C ,  6-H ) :   0.9594
B(  1-C ,  7-H ) :   0.9540 B(  5-C ,  8-C ) :   1.0766 B(  5-C ,  9-H ) :   0.9515
B(  5-C , 10-H ) :   0.9509 B(  8-C , 11-N ) :   1.0637 B(  8-C , 12-H ) :   0.9538
B(  8-C , 13-H ) :   0.9507 B( 11-N , 14-H ) :   0.9706 B( 11-N , 15-H ) :   0.9727

Dispersion correction           -0.001451716
FINAL SINGLE POINT ENERGY      -213.589507745066

DIPOLE MOMENT
-------------
                                X             Y             Z
Electronic contribution:      1.67563      -0.17118       0.19313
Nuclear contribution   :     -1.14124       0.12587      -0.43839
                        -----------------------------------------
Total Dipole Moment    :      0.53439      -0.04530      -0.24526
                        -----------------------------------------
Magnitude (a.u.)       :      0.58972
Magnitude (Debye)      :      1.49896

Dispersion correction in the Hessian             ... Starting D4

VIBRATIONAL FREQUENCIES
-----------------------

Scaling factor for frequencies =  1.000000000  (already applied!)

   0:         0.00 cm**-1
   1:         0.00 cm**-1
   2:         0.00 cm**-1
   3:         0.00 cm**-1
   4:         0.00 cm**-1
   5:         0.00 cm**-1
   6:        46.02 cm**-1
   7:       155.39 cm**-1
   8:       248.36 cm**-1
   9:       265.54 cm**-1
  10:       313.84 cm**-1
  11:       356.00 cm**-1
  12:       489.20 cm**-1
  13:       766.46 cm**-1
  14:       811.69 cm**-1
  15:       836.18 cm**-1
  16:       893.76 cm**-1
  17:       958.19 cm**-1
  18:       979.25 cm**-1
  19:      1061.77 cm**-1
  20:      1077.62 cm**-1
  21:      1140.50 cm**-1
  22:      1164.38 cm**-1
  23:      1209.06 cm**-1
  24:      1292.46 cm**-1
  25:      1296.65 cm**-1
  26:      1333.96 cm**-1
  27:      1364.38 cm**-1
  28:      1403.37 cm**-1
  29:      1415.27 cm**-1
  30:      1440.25 cm**-1
  31:      1458.10 cm**-1
  32:      1466.91 cm**-1
  33:      1473.48 cm**-1
  34:      1496.11 cm**-1
  35:      1498.50 cm**-1
  36:      1639.70 cm**-1
  37:      2985.93 cm**-1
  38:      3046.31 cm**-1
  39:      3056.41 cm**-1
  40:      3059.96 cm**-1
  41:      3088.55 cm**-1
  42:      3108.52 cm**-1
  43:      3111.26 cm**-1
  44:      3145.87 cm**-1
  45:      3189.98 cm**-1
  46:      3558.19 cm**-1
  47:      3644.70 cm**-1

IR SPECTRUM
-----------

 Mode   freq       eps      Int      T**2         TX        TY        TZ
       cm**-1   L/(mol*cm) km/mol    a.u.
----------------------------------------------------------------------------
  6:     46.02   0.000107    0.54  0.000727  (-0.003076  0.026684  0.002448)
  7:    155.39   0.000832    4.20  0.001670  (-0.016781  0.029779 -0.022404)
  8:    248.36   0.003383   17.09  0.004250  (-0.047694  0.010096 -0.043286)
  9:    265.54   0.004876   24.64  0.005730  ( 0.043430 -0.017128  0.059587)
 10:    313.84   0.000181    0.92  0.000180  ( 0.000429  0.002902  0.013097)
 11:    356.00   0.000542    2.74  0.000475  ( 0.005025  0.005562  0.020474)
 12:    489.20   0.001530    7.73  0.000976  (-0.016815 -0.011102 -0.023876)
 13:    766.46   0.001336    6.75  0.000544  (-0.015616 -0.003902 -0.016883)
 14:    811.69   0.015942   80.56  0.006129  (-0.036299  0.048333  0.049753)
 15:    836.18   0.001534    7.75  0.000572  ( 0.001170  0.009006  0.022135)
 16:    893.76   0.007500   37.90  0.002619  (-0.034167  0.025394  0.028400)
 17:    958.19   0.000171    0.86  0.000056  ( 0.005239  0.004102 -0.003372)
 18:    979.25   0.002176   11.00  0.000693  ( 0.012515 -0.018408 -0.014069)
 19:   1061.77   0.001261    6.37  0.000371  (-0.011054  0.008548  0.013238)
 20:   1077.62   0.000258    1.30  0.000075  ( 0.001476 -0.006723 -0.005231)
 21:   1140.50   0.000125    0.63  0.000034  (-0.001029  0.001917  0.005437)
 22:   1164.38   0.002414   12.20  0.000647  (-0.004145 -0.020627 -0.014298)
 23:   1209.06   0.000217    1.09  0.000056  ( 0.004974  0.005576 -0.000258)
 24:   1292.46   0.000859    4.34  0.000207  ( 0.012418  0.007230 -0.000989)
 25:   1296.65   0.000576    2.91  0.000139  ( 0.009119 -0.005261 -0.005283)
 26:   1333.96   0.000295    1.49  0.000069  (-0.000639  0.008244  0.000748)
 27:   1364.38   0.000302    1.53  0.000069  ( 0.005750  0.005329  0.002773)
 28:   1403.37   0.000443    2.24  0.000099  ( 0.009884  0.000490  0.000768)
 29:   1415.27   0.001930    9.75  0.000426  ( 0.012561 -0.015607 -0.004922)
 30:   1440.25   0.001800    9.10  0.000390  (-0.006083 -0.016626 -0.008750)
 31:   1458.10   0.000838    4.23  0.000179  ( 0.001917  0.004455  0.012483)
 32:   1466.91   0.000736    3.72  0.000157  (-0.007496 -0.009871  0.001746)
 33:   1473.48   0.001771    8.95  0.000375  (-0.003221 -0.002914 -0.018873)
 34:   1496.11   0.000425    2.15  0.000089  (-0.003778  0.000003 -0.008626)
 35:   1498.50   0.001375    6.95  0.000286  (-0.014181 -0.006067  0.006964)
 36:   1639.70   0.005860   29.61  0.001115  ( 0.022416  0.024226 -0.005081)
 37:   2985.93   0.017837   90.14  0.001864  ( 0.031724 -0.023826 -0.017032)
 38:   3046.31   0.005852   29.57  0.000599  (-0.007534 -0.000427  0.023292)
 39:   3056.41   0.007312   36.95  0.000747  (-0.001074  0.026852 -0.004934)
 40:   3059.96   0.004218   21.32  0.000430  (-0.020583  0.001660  0.001936)
 41:   3088.55   0.005748   29.05  0.000581  (-0.005697 -0.009018  0.021610)
 42:   3108.52   0.007204   36.41  0.000723  (-0.016872  0.004425 -0.020469)
 43:   3111.26   0.008588   43.40  0.000861  (-0.001117 -0.029327  0.000123)
 44:   3145.87   0.007533   38.07  0.000747  (-0.010461 -0.007594  0.024086)
 45:   3189.98   0.001050    5.31  0.000103  (-0.008885 -0.001636 -0.004596)
 46:   3558.19   0.000181    0.91  0.000016  (-0.003836 -0.000420  0.000969)
 47:   3644.70   0.000495    2.50  0.000042  ( 0.003344 -0.002375  0.005056)

--------------------------
THERMOCHEMISTRY AT 298.15K
--------------------------

Temperature         ... 298.15 K
Pressure            ... 1.00 atm
Total Mass          ... 73.14 AMU

Throughout the following assumptions are being made:
  (1) The electronic state is orbitally nondegenerate
  (2) There are no thermally accessible electronically excited states
  (3) Hindered rotations indicated by low frequency modes are not
      treated as such but are treated as vibrations and this may
      cause some error
  (4) All equations used are the standard statistical mechanics
      equations for an ideal gas
  (5) All vibrations are strictly harmonic

freq.      46.02  E(vib)   ...       0.53
freq.     155.39  E(vib)   ...       0.40
freq.     248.36  E(vib)   ...       0.31
freq.     265.54  E(vib)   ...       0.29
freq.     313.84  E(vib)   ...       0.25
freq.     356.00  E(vib)   ...       0.22
freq.     489.20  E(vib)   ...       0.15
freq.     766.46  E(vib)   ...       0.06
freq.     811.69  E(vib)   ...       0.05
freq.     836.18  E(vib)   ...       0.04
freq.     893.76  E(vib)   ...       0.03
freq.     958.19  E(vib)   ...       0.03
freq.     979.25  E(vib)   ...       0.03
freq.    1061.77  E(vib)   ...       0.02
freq.    1077.62  E(vib)   ...       0.02
freq.    1140.50  E(vib)   ...       0.01
freq.    1164.38  E(vib)   ...       0.01
freq.    1209.06  E(vib)   ...       0.01
freq.    1292.46  E(vib)   ...       0.01
freq.    1296.65  E(vib)   ...       0.01
freq.    1333.96  E(vib)   ...       0.01
freq.    1364.38  E(vib)   ...       0.01
freq.    1403.37  E(vib)   ...       0.00
freq.    1415.27  E(vib)   ...       0.00
freq.    1440.25  E(vib)   ...       0.00
freq.    1458.10  E(vib)   ...       0.00
freq.    1466.91  E(vib)   ...       0.00
freq.    1473.48  E(vib)   ...       0.00
freq.    1496.11  E(vib)   ...       0.00
freq.    1498.50  E(vib)   ...       0.00
freq.    1639.70  E(vib)   ...       0.00
freq.    2985.93  E(vib)   ...       0.00
freq.    3046.31  E(vib)   ...       0.00
freq.    3056.41  E(vib)   ...       0.00
freq.    3059.96  E(vib)   ...       0.00
freq.    3088.55  E(vib)   ...       0.00
freq.    3108.52  E(vib)   ...       0.00
freq.    3111.26  E(vib)   ...       0.00
freq.    3145.87  E(vib)   ...       0.00
freq.    3189.98  E(vib)   ...       0.00
freq.    3558.19  E(vib)   ...       0.00
freq.    3644.70  E(vib)   ...       0.00

------------
INNER ENERGY
------------

The inner energy is: U= E(el) + E(ZPE) + E(vib) + E(rot) + E(trans)
    E(el)   - is the total energy from the electronic structure calculation
              = E(kin-el) + E(nuc-el) + E(el-el) + E(nuc-nuc)
    E(ZPE)  - the the zero temperature vibrational energy from the frequency calculation
    E(vib)  - the the finite temperature correction to E(ZPE) due to population
              of excited vibrational states
    E(rot)  - is the rotational thermal energy
    E(trans)- is the translational thermal energy

Summary of contributions to the inner energy U:
Electronic energy                ...   -213.58950775 Eh
Zero point energy                ...      0.15115187 Eh      94.85 kcal/mol
Thermal vibrational correction   ...      0.00399658 Eh       2.51 kcal/mol
Thermal rotational correction    ...      0.00141627 Eh       0.89 kcal/mol
Thermal translational correction ...      0.00141627 Eh       0.89 kcal/mol
-----------------------------------------------------------------------
Total thermal energy                   -213.43152675 Eh

Summary of corrections to the electronic energy:
(perhaps to be used in another calculation)
Total thermal correction                  0.00682912 Eh       4.29 kcal/mol
Non-thermal (ZPE) correction              0.15115187 Eh      94.85 kcal/mol
-----------------------------------------------------------------------
Total correction                          0.15798099 Eh      99.13 kcal/mol

--------
ENTHALPY
--------

The enthalpy is H = U + kB*T
                kB is Boltzmann's constant
Total free energy                 ...   -213.43152675 Eh
Thermal Enthalpy correction       ...      0.00094421 Eh       0.59 kcal/mol
-----------------------------------------------------------------------
Total Enthalpy                    ...   -213.43058254 Eh

Note: Only C1 symmetry has been detected, increase convergence thresholds
      if your molecule has a higher symmetry. Symmetry factor of 1.0 is
      used for the rotational entropy correction.

Note: Rotational entropy computed according to Herzberg
Infrared and Raman Spectra, Chapter V,1, Van Nostrand Reinhold, 1945
Point Group:  C1, Symmetry Number:   1
Rotational constants in cm-1:     0.242944     0.113079     0.086752

Vibrational entropy computed according to the QRRHO of S. Grimme
Chem.Eur.J. 2012 18 9955

-------
ENTROPY
-------

The entropy contributions are T*S = T*(S(el)+S(vib)+S(rot)+S(trans))
     S(el)   - electronic entropy
     S(vib)  - vibrational entropy
     S(rot)  - rotational entropy
     S(trans)- translational entropy
The entropies will be listed as multiplied by the temperature to get
units of energy

Electronic entropy                ...      0.00000000 Eh      0.00 kcal/mol
Vibrational entropy               ...      0.00678901 Eh      4.26 kcal/mol
Rotational entropy                ...      0.01236190 Eh      7.76 kcal/mol
Translational entropy             ...      0.01842822 Eh     11.56 kcal/mol
-----------------------------------------------------------------------
Final entropy term                ...      0.03757914 Eh     23.58 kcal/mol

In case the symmetry of your molecule has not been determined correctly
or in case you have a reason to use a different symmetry number we print
out the resulting rotational entropy values for sn=1,12 :
 --------------------------------------------------------
|  sn= 1 | S(rot)=       0.01236190 Eh      7.76 kcal/mol|
|  sn= 2 | S(rot)=       0.01170745 Eh      7.35 kcal/mol|
|  sn= 3 | S(rot)=       0.01132461 Eh      7.11 kcal/mol|
|  sn= 4 | S(rot)=       0.01105299 Eh      6.94 kcal/mol|
|  sn= 5 | S(rot)=       0.01084230 Eh      6.80 kcal/mol|
|  sn= 6 | S(rot)=       0.01067016 Eh      6.70 kcal/mol|
|  sn= 7 | S(rot)=       0.01052461 Eh      6.60 kcal/mol|
|  sn= 8 | S(rot)=       0.01039853 Eh      6.53 kcal/mol|
|  sn= 9 | S(rot)=       0.01028732 Eh      6.46 kcal/mol|
|  sn=10 | S(rot)=       0.01018785 Eh      6.39 kcal/mol|
|  sn=11 | S(rot)=       0.01009786 Eh      6.34 kcal/mol|
|  sn=12 | S(rot)=       0.01001570 Eh      6.28 kcal/mol|
 --------------------------------------------------------

-------------------
GIBBS FREE ENERGY
-------------------

The Gibbs free energy is G = H - T*S

                             ****ORCA TERMINATED NORMALLY****
TOTAL RUN TIME: 0 days 0 hours 4 minutes 50 seconds 814 msec
