                         Program Version 5.0.4 -  RELEASE  -
|  1> # ORCA 5.0.4 - /users/bwb16179/postgrad/2024_06/pKa_Reviewer_Comments/CREST_Confs/butylamine/butylamine_deprot_aq_16.inp # write input file
|  2> # Basic Mode
|  3> #
|  4> ! Opt Freq wB97X Def2-SVP D4 SlowConv TightSCF Defgrid2 Def2/J RIJCOSX
|  5>
|  6> %PAL NPROCS 4 END
|  7>
|  8> %maxcore 4500
|  9>
| 10> %geom
| 11> Maxiter 150
| 12> END
| 13>
| 14> * xyzfile 0 1 butylamine_deprot_aq_16.xyz
| 15>
| 16>                          ****END OF INPUT****
 Total Charge           Charge          ....    0
 Multiplicity           Mult            ....    1
 Number of Electrons    NEL             ....   42
Dispersion correction           -0.001583865
FINAL SINGLE POINT ENERGY      -213.233383071110
Dispersion correction            ... Starting D4
Dispersion correction           -0.001549227
FINAL SINGLE POINT ENERGY      -213.314436179591
Dispersion correction            ... Starting D4
Dispersion correction           -0.001487101
FINAL SINGLE POINT ENERGY      -213.390091590533
Dispersion correction            ... Starting D4
FINAL SINGLE POINT ENERGY      -213.458132145683
FINAL SINGLE POINT ENERGY      -213.515607589145
FINAL SINGLE POINT ENERGY      -213.558835203741
FINAL SINGLE POINT ENERGY      -213.582968379896
FINAL SINGLE POINT ENERGY      -213.586840336092
FINAL SINGLE POINT ENERGY      -213.585901416471
FINAL SINGLE POINT ENERGY      -213.588811503870
FINAL SINGLE POINT ENERGY      -213.589366072026
FINAL SINGLE POINT ENERGY      -213.589388151082
FINAL SINGLE POINT ENERGY      -213.589773935503
FINAL SINGLE POINT ENERGY      -213.589767312535
FINAL SINGLE POINT ENERGY      -213.589813535759
FINAL SINGLE POINT ENERGY      -213.589821305064
FINAL SINGLE POINT ENERGY      -213.589826271398
Dispersion correction           -0.001393709
FINAL SINGLE POINT ENERGY      -213.589826945424
Dispersion correction            ... Starting D4
Dispersion correction           -0.001393769
FINAL SINGLE POINT ENERGY      -213.589828808131
Dispersion correction            ... Starting D4
                    ***********************HURRAY********************

CARTESIAN COORDINATES (ANGSTROEM)
---------------------------------
  C     -2.170008    0.300489   -0.584579
  C     -1.391153   -0.556215    0.409513
  H     -1.681586    0.335044   -1.571101
  H     -2.263669    1.338658   -0.225038
  H     -3.187242   -0.091189   -0.737661
  C      0.008586   -0.032267    0.730177
  H     -1.310280   -1.587966    0.022042
  H     -1.966048   -0.632609    1.347737
  C      0.976857   -0.036423   -0.454435
  H      0.448660   -0.642556    1.539925
  H     -0.064093    0.997060    1.130132
  N      2.330317    0.400594   -0.159669
  H      0.582993    0.601399   -1.264068
  H      1.023876   -1.056240   -0.877725
  H      2.729579   -0.168246    0.584933
  H      2.322682    1.356867    0.190266

 Multiplicity           Mult            ....    1
 Number of Electrons    NEL             ....   42
 Basis Dimension        Dim             ....  125

ORBITAL ENERGIES
----------------

  NO   OCC          E(Eh)            E(eV)
   0   2.0000     -14.376075      -391.1929
   1   2.0000     -10.284624      -279.8589
   2   2.0000     -10.266967      -279.3784
   3   2.0000     -10.261953      -279.2419
   4   2.0000     -10.261846      -279.2390
   5   2.0000      -0.997712       -27.1491
   6   2.0000      -0.910234       -24.7687
   7   2.0000      -0.819940       -22.3117
   8   2.0000      -0.745729       -20.2923
   9   2.0000      -0.685251       -18.6466
  10   2.0000      -0.607927       -16.5425
  11   2.0000      -0.571148       -15.5417
  12   2.0000      -0.553634       -15.0651
  13   2.0000      -0.518631       -14.1127
  14   2.0000      -0.509728       -13.8704
  15   2.0000      -0.488190       -13.2843
  16   2.0000      -0.460044       -12.5184
  17   2.0000      -0.443287       -12.0625
  18   2.0000      -0.427372       -11.6294
  19   2.0000      -0.422389       -11.4938
  20   2.0000      -0.331014        -9.0074
  21   0.0000       0.142302         3.8722
  22   0.0000       0.159205         4.3322
  23   0.0000       0.172872         4.7041
  24   0.0000       0.180092         4.9006
  25   0.0000       0.213421         5.8075

MULLIKEN ATOMIC CHARGES
-----------------------
   0 C :   -0.054345
   1 C :   -0.055017
   2 H :    0.030599
   3 H :    0.023113
   4 H :    0.031178
   5 C :   -0.053953
   6 H :    0.016869
   7 H :    0.021176
   8 C :    0.056931
   9 H :    0.006393
  10 H :    0.002134
  11 N :   -0.241391
  12 H :    0.017485
  13 H :    0.014543
  14 H :    0.091736
  15 H :    0.092549
Sum of atomic charges:   -0.0000000

LOEWDIN ATOMIC CHARGES
----------------------
   0 C :   -0.066402
   1 C :   -0.046008
   2 H :    0.022412
   3 H :    0.023537
   4 H :    0.027074
   5 C :   -0.063529
   6 H :    0.021451
   7 H :    0.023986
   8 C :    0.005880
   9 H :    0.017321
  10 H :    0.014729
  11 N :   -0.117823
  12 H :    0.017427
  13 H :    0.018171
  14 H :    0.050499
  15 H :    0.051275

  Mayer bond orders larger than 0.100000
B(  0-C ,  1-C ) :   1.0769 B(  0-C ,  2-H ) :   0.9760 B(  0-C ,  3-H ) :   0.9762
B(  0-C ,  4-H ) :   0.9734 B(  1-C ,  5-C ) :   1.0600 B(  1-C ,  6-H ) :   0.9547
B(  1-C ,  7-H ) :   0.9539 B(  5-C ,  8-C ) :   1.0382 B(  5-C ,  9-H ) :   0.9492
B(  5-C , 10-H ) :   0.9483 B(  8-C , 11-N ) :   1.0889 B(  8-C , 12-H ) :   0.9589
B(  8-C , 13-H ) :   0.9590 B( 11-N , 14-H ) :   0.9812 B( 11-N , 15-H ) :   0.9805

Dispersion correction           -0.001393839
FINAL SINGLE POINT ENERGY      -213.589829205105

DIPOLE MOMENT
-------------
                                X             Y             Z
Electronic contribution:      2.63423      -0.07501       0.20395
Nuclear contribution   :     -2.90591       0.11847       0.25512
                        -----------------------------------------
Total Dipole Moment    :     -0.27168       0.04346       0.45907
                        -----------------------------------------
Magnitude (a.u.)       :      0.53521
Magnitude (Debye)      :      1.36039

Dispersion correction in the Hessian             ... Starting D4

VIBRATIONAL FREQUENCIES
-----------------------

Scaling factor for frequencies =  1.000000000  (already applied!)

   0:         0.00 cm**-1
   1:         0.00 cm**-1
   2:         0.00 cm**-1
   3:         0.00 cm**-1
   4:         0.00 cm**-1
   5:         0.00 cm**-1
   6:        79.15 cm**-1
   7:       119.93 cm**-1
   8:       218.64 cm**-1
   9:       286.23 cm**-1
  10:       304.63 cm**-1
  11:       350.95 cm**-1
  12:       490.15 cm**-1
  13:       743.60 cm**-1
  14:       783.58 cm**-1
  15:       850.95 cm**-1
  16:       913.90 cm**-1
  17:       935.66 cm**-1
  18:       989.37 cm**-1
  19:      1050.78 cm**-1
  20:      1107.77 cm**-1
  21:      1128.26 cm**-1
  22:      1162.50 cm**-1
  23:      1209.23 cm**-1
  24:      1282.21 cm**-1
  25:      1309.33 cm**-1
  26:      1337.70 cm**-1
  27:      1376.00 cm**-1
  28:      1382.86 cm**-1
  29:      1419.21 cm**-1
  30:      1421.71 cm**-1
  31:      1461.57 cm**-1
  32:      1467.79 cm**-1
  33:      1479.64 cm**-1
  34:      1483.17 cm**-1
  35:      1485.38 cm**-1
  36:      1650.83 cm**-1
  37:      3042.00 cm**-1
  38:      3059.78 cm**-1
  39:      3060.65 cm**-1
  40:      3063.21 cm**-1
  41:      3093.13 cm**-1
  42:      3114.14 cm**-1
  43:      3121.70 cm**-1
  44:      3155.33 cm**-1
  45:      3164.29 cm**-1
  46:      3554.22 cm**-1
  47:      3635.96 cm**-1

IR SPECTRUM
-----------

 Mode   freq       eps      Int      T**2         TX        TY        TZ
       cm**-1   L/(mol*cm) km/mol    a.u.
----------------------------------------------------------------------------
  6:     79.15   0.000277    1.40  0.001090  (-0.012430  0.029345 -0.008635)
  7:    119.93   0.000003    0.02  0.000009  (-0.002570  0.000488 -0.001445)
  8:    218.64   0.000317    1.60  0.000453  (-0.018766 -0.009317 -0.003721)
  9:    286.23   0.002876   14.53  0.003135  ( 0.000484 -0.055099  0.009952)
 10:    304.63   0.007039   35.57  0.007211  (-0.027519  0.077148 -0.022399)
 11:    350.95   0.000392    1.98  0.000349  ( 0.016264  0.008445  0.003608)
 12:    490.15   0.000672    3.40  0.000428  (-0.019149 -0.007746  0.001179)
 13:    743.60   0.000504    2.55  0.000211  ( 0.008160 -0.010794 -0.005316)
 14:    783.58   0.000334    1.69  0.000133  (-0.008566 -0.002908 -0.007157)
 15:    850.95   0.032021  161.82  0.011743  ( 0.099153  0.011973 -0.042051)
 16:    913.90   0.006544   33.07  0.002235  (-0.041081 -0.010931  0.020676)
 17:    935.66   0.000404    2.04  0.000135  (-0.010949  0.002711 -0.002762)
 18:    989.37   0.001891    9.56  0.000596  (-0.015965  0.000896  0.018461)
 19:   1050.78   0.000073    0.37  0.000022  (-0.000136  0.004381  0.001532)
 20:   1107.77   0.000129    0.65  0.000036  ( 0.005864  0.000621 -0.001285)
 21:   1128.26   0.005161   26.08  0.001427  ( 0.035781  0.006048 -0.010516)
 22:   1162.50   0.001014    5.13  0.000272  (-0.012942 -0.004375 -0.009253)
 23:   1209.23   0.000205    1.04  0.000053  ( 0.004056  0.005575  0.002315)
 24:   1282.21   0.000228    1.15  0.000055  ( 0.007311  0.000068 -0.001414)
 25:   1309.33   0.000180    0.91  0.000043  (-0.003096  0.005547 -0.001560)
 26:   1337.70   0.001257    6.35  0.000293  ( 0.016285  0.004223 -0.003190)
 27:   1376.00   0.000038    0.19  0.000009  (-0.000667  0.000580 -0.002792)
 28:   1382.86   0.000231    1.17  0.000052  (-0.004874 -0.005143 -0.001366)
 29:   1419.21   0.001110    5.61  0.000244  ( 0.002166 -0.011280  0.010591)
 30:   1421.71   0.002067   10.45  0.000454  (-0.021285  0.000558 -0.000619)
 31:   1461.57   0.000123    0.62  0.000026  ( 0.003504  0.003725  0.000274)
 32:   1467.79   0.000184    0.93  0.000039  (-0.001002 -0.006152 -0.000434)
 33:   1479.64   0.000789    3.99  0.000166  (-0.006105  0.004416  0.010473)
 34:   1483.17   0.000795    4.02  0.000167  (-0.004291  0.000793  0.012178)
 35:   1485.38   0.001528    7.72  0.000321  ( 0.010029  0.012890  0.007375)
 36:   1650.83   0.004298   21.72  0.000812  ( 0.012793  0.009990  0.023430)
 37:   3042.00   0.005372   27.15  0.000551  ( 0.010698  0.010434  0.018103)
 38:   3059.78   0.006867   34.70  0.000700  (-0.005170 -0.016361 -0.020148)
 39:   3060.65   0.006716   33.94  0.000685  (-0.001554  0.019322 -0.017578)
 40:   3063.21   0.003649   18.44  0.000372  (-0.015614 -0.004600 -0.010335)
 41:   3093.13   0.003248   16.42  0.000328  (-0.003192  0.016533 -0.006647)
 42:   3114.14   0.003685   18.62  0.000369  (-0.005773  0.000717  0.018315)
 43:   3121.70   0.010819   54.68  0.001082  ( 0.013311 -0.029615  0.005228)
 44:   3155.33   0.005972   30.18  0.000591  (-0.001552 -0.017267 -0.017032)
 45:   3164.29   0.005347   27.02  0.000527  (-0.019392 -0.005856  0.010815)
 46:   3554.22   0.000037    0.19  0.000003  (-0.001083  0.000220  0.001436)
 47:   3635.96   0.000225    1.14  0.000019  ( 0.000882 -0.004184  0.001015)

--------------------------
THERMOCHEMISTRY AT 298.15K
--------------------------

Temperature         ... 298.15 K
Pressure            ... 1.00 atm
Total Mass          ... 73.14 AMU

Throughout the following assumptions are being made:
  (1) The electronic state is orbitally nondegenerate
  (2) There are no thermally accessible electronically excited states
  (3) Hindered rotations indicated by low frequency modes are not
      treated as such but are treated as vibrations and this may
      cause some error
  (4) All equations used are the standard statistical mechanics
      equations for an ideal gas
  (5) All vibrations are strictly harmonic

freq.      79.15  E(vib)   ...       0.49
freq.     119.93  E(vib)   ...       0.44
freq.     218.64  E(vib)   ...       0.33
freq.     286.23  E(vib)   ...       0.27
freq.     304.63  E(vib)   ...       0.26
freq.     350.95  E(vib)   ...       0.23
freq.     490.15  E(vib)   ...       0.15
freq.     743.60  E(vib)   ...       0.06
freq.     783.58  E(vib)   ...       0.05
freq.     850.95  E(vib)   ...       0.04
freq.     913.90  E(vib)   ...       0.03
freq.     935.66  E(vib)   ...       0.03
freq.     989.37  E(vib)   ...       0.02
freq.    1050.78  E(vib)   ...       0.02
freq.    1107.77  E(vib)   ...       0.02
freq.    1128.26  E(vib)   ...       0.01
freq.    1162.50  E(vib)   ...       0.01
freq.    1209.23  E(vib)   ...       0.01
freq.    1282.21  E(vib)   ...       0.01
freq.    1309.33  E(vib)   ...       0.01
freq.    1337.70  E(vib)   ...       0.01
freq.    1376.00  E(vib)   ...       0.01
freq.    1382.86  E(vib)   ...       0.01
freq.    1419.21  E(vib)   ...       0.00
freq.    1421.71  E(vib)   ...       0.00
freq.    1461.57  E(vib)   ...       0.00
freq.    1467.79  E(vib)   ...       0.00
freq.    1479.64  E(vib)   ...       0.00
freq.    1483.17  E(vib)   ...       0.00
freq.    1485.38  E(vib)   ...       0.00
freq.    1650.83  E(vib)   ...       0.00
freq.    3042.00  E(vib)   ...       0.00
freq.    3059.78  E(vib)   ...       0.00
freq.    3060.65  E(vib)   ...       0.00
freq.    3063.21  E(vib)   ...       0.00
freq.    3093.13  E(vib)   ...       0.00
freq.    3114.14  E(vib)   ...       0.00
freq.    3121.70  E(vib)   ...       0.00
freq.    3155.33  E(vib)   ...       0.00
freq.    3164.29  E(vib)   ...       0.00
freq.    3554.22  E(vib)   ...       0.00
freq.    3635.96  E(vib)   ...       0.00

------------
INNER ENERGY
------------

The inner energy is: U= E(el) + E(ZPE) + E(vib) + E(rot) + E(trans)
    E(el)   - is the total energy from the electronic structure calculation
              = E(kin-el) + E(nuc-el) + E(el-el) + E(nuc-nuc)
    E(ZPE)  - the the zero temperature vibrational energy from the frequency calculation
    E(vib)  - the the finite temperature correction to E(ZPE) due to population
              of excited vibrational states
    E(rot)  - is the rotational thermal energy
    E(trans)- is the translational thermal energy

Summary of contributions to the inner energy U:
Electronic energy                ...   -213.58982921 Eh
Zero point energy                ...      0.15114980 Eh      94.85 kcal/mol
Thermal vibrational correction   ...      0.00403431 Eh       2.53 kcal/mol
Thermal rotational correction    ...      0.00141627 Eh       0.89 kcal/mol
Thermal translational correction ...      0.00141627 Eh       0.89 kcal/mol
-----------------------------------------------------------------------
Total thermal energy                   -213.43181256 Eh

Summary of corrections to the electronic energy:
(perhaps to be used in another calculation)
Total thermal correction                  0.00686685 Eh       4.31 kcal/mol
Non-thermal (ZPE) correction              0.15114980 Eh      94.85 kcal/mol
-----------------------------------------------------------------------
Total correction                          0.15801665 Eh      99.16 kcal/mol

--------
ENTHALPY
--------

The enthalpy is H = U + kB*T
                kB is Boltzmann's constant
Total free energy                 ...   -213.43181256 Eh
Thermal Enthalpy correction       ...      0.00094421 Eh       0.59 kcal/mol
-----------------------------------------------------------------------
Total Enthalpy                    ...   -213.43086835 Eh

Note: Only C1 symmetry has been detected, increase convergence thresholds
      if your molecule has a higher symmetry. Symmetry factor of 1.0 is
      used for the rotational entropy correction.

Note: Rotational entropy computed according to Herzberg
Infrared and Raman Spectra, Chapter V,1, Van Nostrand Reinhold, 1945
Point Group:  C1, Symmetry Number:   1
Rotational constants in cm-1:     0.400681     0.076981     0.071075

Vibrational entropy computed according to the QRRHO of S. Grimme
Chem.Eur.J. 2012 18 9955

-------
ENTROPY
-------

The entropy contributions are T*S = T*(S(el)+S(vib)+S(rot)+S(trans))
     S(el)   - electronic entropy
     S(vib)  - vibrational entropy
     S(rot)  - rotational entropy
     S(trans)- translational entropy
The entropies will be listed as multiplied by the temperature to get
units of energy

Electronic entropy                ...      0.00000000 Eh      0.00 kcal/mol
Vibrational entropy               ...      0.00689245 Eh      4.33 kcal/mol
Rotational entropy                ...      0.01240133 Eh      7.78 kcal/mol
Translational entropy             ...      0.01842822 Eh     11.56 kcal/mol
-----------------------------------------------------------------------
Final entropy term                ...      0.03772200 Eh     23.67 kcal/mol

In case the symmetry of your molecule has not been determined correctly
or in case you have a reason to use a different symmetry number we print
out the resulting rotational entropy values for sn=1,12 :
 --------------------------------------------------------
|  sn= 1 | S(rot)=       0.01240133 Eh      7.78 kcal/mol|
|  sn= 2 | S(rot)=       0.01174687 Eh      7.37 kcal/mol|
|  sn= 3 | S(rot)=       0.01136404 Eh      7.13 kcal/mol|
|  sn= 4 | S(rot)=       0.01109242 Eh      6.96 kcal/mol|
|  sn= 5 | S(rot)=       0.01088173 Eh      6.83 kcal/mol|
|  sn= 6 | S(rot)=       0.01070958 Eh      6.72 kcal/mol|
|  sn= 7 | S(rot)=       0.01056404 Eh      6.63 kcal/mol|
|  sn= 8 | S(rot)=       0.01043796 Eh      6.55 kcal/mol|
|  sn= 9 | S(rot)=       0.01032675 Eh      6.48 kcal/mol|
|  sn=10 | S(rot)=       0.01022727 Eh      6.42 kcal/mol|
|  sn=11 | S(rot)=       0.01013728 Eh      6.36 kcal/mol|
|  sn=12 | S(rot)=       0.01005513 Eh      6.31 kcal/mol|
 --------------------------------------------------------

-------------------
GIBBS FREE ENERGY
-------------------

The Gibbs free energy is G = H - T*S

                             ****ORCA TERMINATED NORMALLY****
TOTAL RUN TIME: 0 days 0 hours 9 minutes 29 seconds 448 msec
