                         Program Version 5.0.4 -  RELEASE  -
|  1> # ORCA 5.0.4 - /users/bwb16179/postgrad/2024_06/pKa_Reviewer_Comments/CREST_Confs/butylamine/butylamine_deprot_aq_15.inp # write input file
|  2> # Basic Mode
|  3> #
|  4> ! Opt Freq wB97X Def2-SVP D4 SlowConv TightSCF Defgrid2 Def2/J RIJCOSX
|  5>
|  6> %PAL NPROCS 4 END
|  7>
|  8> %maxcore 4500
|  9>
| 10> %geom
| 11> Maxiter 150
| 12> END
| 13>
| 14> * xyzfile 0 1 butylamine_deprot_aq_15.xyz
| 15>
| 16>                          ****END OF INPUT****
 Total Charge           Charge          ....    0
 Multiplicity           Mult            ....    1
 Number of Electrons    NEL             ....   42
Dispersion correction           -0.001440977
FINAL SINGLE POINT ENERGY      -213.587851711557
Dispersion correction            ... Starting D4
Dispersion correction           -0.001442340
FINAL SINGLE POINT ENERGY      -213.589093317422
Dispersion correction            ... Starting D4
Dispersion correction           -0.001445542
FINAL SINGLE POINT ENERGY      -213.589375279598
Dispersion correction            ... Starting D4
FINAL SINGLE POINT ENERGY      -213.589600709207
FINAL SINGLE POINT ENERGY      -213.589643108398
Dispersion correction           -0.001455377
FINAL SINGLE POINT ENERGY      -213.589676249911
Dispersion correction            ... Starting D4
Dispersion correction           -0.001455754
FINAL SINGLE POINT ENERGY      -213.589680026229
Dispersion correction            ... Starting D4
                    ***********************HURRAY********************

CARTESIAN COORDINATES (ANGSTROEM)
---------------------------------
  C     -1.863447    0.722332    0.140505
  C     -1.111040   -0.368396   -0.616515
  H     -1.209532    1.570788    0.401635
  H     -2.286946    0.334847    1.082058
  H     -2.695421    1.124155   -0.458136
  C      0.008093   -1.038349    0.183786
  H     -0.687122    0.046777   -1.548047
  H     -1.824432   -1.144771   -0.939950
  C      1.090050   -0.084680    0.682774
  H      0.486287   -1.805743   -0.447447
  H     -0.427592   -1.561928    1.053803
  N      1.722671    0.621985   -0.420873
  H      1.864703   -0.676357    1.198438
  H      0.658977    0.588028    1.455723
  H      1.069886    1.282092   -0.839722
  H      2.507566    1.176192   -0.087620

 Multiplicity           Mult            ....    1
 Number of Electrons    NEL             ....   42
 Basis Dimension        Dim             ....  125

ORBITAL ENERGIES
----------------

  NO   OCC          E(Eh)            E(eV)
   0   2.0000     -14.376900      -391.2153
   1   2.0000     -10.284640      -279.8593
   2   2.0000     -10.263291      -279.2784
   3   2.0000     -10.262024      -279.2439
   4   2.0000     -10.257850      -279.1303
   5   2.0000      -0.997877       -27.1536
   6   2.0000      -0.904780       -24.6203
   7   2.0000      -0.823827       -22.4175
   8   2.0000      -0.746975       -20.3262
   9   2.0000      -0.667580       -18.1658
  10   2.0000      -0.607653       -16.5351
  11   2.0000      -0.581263       -15.8170
  12   2.0000      -0.541286       -14.7291
  13   2.0000      -0.537266       -14.6198
  14   2.0000      -0.500337       -13.6149
  15   2.0000      -0.483044       -13.1443
  16   2.0000      -0.468612       -12.7516
  17   2.0000      -0.429431       -11.6854
  18   2.0000      -0.422298       -11.4913
  19   2.0000      -0.419246       -11.4083
  20   2.0000      -0.333213        -9.0672
  21   0.0000       0.133636         3.6364
  22   0.0000       0.171888         4.6773
  23   0.0000       0.180129         4.9015
  24   0.0000       0.186853         5.0845
  25   0.0000       0.210760         5.7351

MULLIKEN ATOMIC CHARGES
-----------------------
   0 C :   -0.049726
   1 C :   -0.083960
   2 H :    0.019612
   3 H :    0.024936
   4 H :    0.031506
   5 C :   -0.023597
   6 H :    0.021379
   7 H :    0.022968
   8 C :    0.051921
   9 H :    0.023339
  10 H :    0.011660
  11 N :   -0.253648
  12 H :    0.016665
  13 H :   -0.003141
  14 H :    0.091007
  15 H :    0.099079
Sum of atomic charges:    0.0000000

LOEWDIN ATOMIC CHARGES
----------------------
   0 C :   -0.067500
   1 C :   -0.050745
   2 H :    0.018106
   3 H :    0.024298
   4 H :    0.027004
   5 C :   -0.046711
   6 H :    0.020087
   7 H :    0.025130
   8 C :    0.010205
   9 H :    0.026280
  10 H :    0.020757
  11 N :   -0.126658
  12 H :    0.020247
  13 H :   -0.004474
  14 H :    0.048626
  15 H :    0.055350

  Mayer bond orders larger than 0.100000
B(  0-C ,  1-C ) :   1.0722 B(  0-C ,  2-H ) :   0.9731 B(  0-C ,  3-H ) :   0.9750
B(  0-C ,  4-H ) :   0.9737 B(  1-C ,  5-C ) :   1.0730 B(  1-C ,  6-H ) :   0.9544
B(  1-C ,  7-H ) :   0.9564 B(  5-C ,  8-C ) :   1.0691 B(  5-C ,  9-H ) :   0.9465
B(  5-C , 10-H ) :   0.9518 B(  8-C , 11-N ) :   1.0595 B(  8-C , 12-H ) :   0.9549
B(  8-C , 13-H ) :   0.9472 B( 11-N , 14-H ) :   0.9730 B( 11-N , 15-H ) :   0.9709

Dispersion correction           -0.001455683
FINAL SINGLE POINT ENERGY      -213.589682974541

DIPOLE MOMENT
-------------
                                X             Y             Z
Electronic contribution:      2.13121      -0.44859      -0.57902
Nuclear contribution   :     -2.23976       0.82101       0.86069
                        -----------------------------------------
Total Dipole Moment    :     -0.10855       0.37242       0.28167
                        -----------------------------------------
Magnitude (a.u.)       :      0.47939
Magnitude (Debye)      :      1.21851

Dispersion correction in the Hessian             ... Starting D4

VIBRATIONAL FREQUENCIES
-----------------------

Scaling factor for frequencies =  1.000000000  (already applied!)

   0:         0.00 cm**-1
   1:         0.00 cm**-1
   2:         0.00 cm**-1
   3:         0.00 cm**-1
   4:         0.00 cm**-1
   5:         0.00 cm**-1
   6:        92.68 cm**-1
   7:       168.37 cm**-1
   8:       255.90 cm**-1
   9:       276.21 cm**-1
  10:       295.40 cm**-1
  11:       407.24 cm**-1
  12:       514.78 cm**-1
  13:       744.94 cm**-1
  14:       823.20 cm**-1
  15:       843.86 cm**-1
  16:       872.00 cm**-1
  17:       952.65 cm**-1
  18:       992.29 cm**-1
  19:      1051.89 cm**-1
  20:      1088.94 cm**-1
  21:      1145.45 cm**-1
  22:      1163.12 cm**-1
  23:      1208.49 cm**-1
  24:      1257.13 cm**-1
  25:      1301.94 cm**-1
  26:      1347.73 cm**-1
  27:      1364.52 cm**-1
  28:      1399.50 cm**-1
  29:      1416.04 cm**-1
  30:      1445.70 cm**-1
  31:      1454.36 cm**-1
  32:      1474.89 cm**-1
  33:      1476.67 cm**-1
  34:      1486.09 cm**-1
  35:      1503.25 cm**-1
  36:      1648.55 cm**-1
  37:      2987.33 cm**-1
  38:      3057.75 cm**-1
  39:      3062.66 cm**-1
  40:      3069.51 cm**-1
  41:      3105.70 cm**-1
  42:      3117.00 cm**-1
  43:      3128.28 cm**-1
  44:      3149.14 cm**-1
  45:      3159.16 cm**-1
  46:      3563.50 cm**-1
  47:      3645.49 cm**-1

IR SPECTRUM
-----------

 Mode   freq       eps      Int      T**2         TX        TY        TZ
       cm**-1   L/(mol*cm) km/mol    a.u.
----------------------------------------------------------------------------
  6:     92.68   0.000126    0.64  0.000425  ( 0.000562  0.014178 -0.014944)
  7:    168.37   0.001773    8.96  0.003286  ( 0.053365 -0.005322  0.020251)
  8:    255.90   0.003792   19.16  0.004624  (-0.061998  0.005476 -0.027391)
  9:    276.21   0.000300    1.52  0.000339  (-0.017577 -0.005149  0.001934)
 10:    295.40   0.005609   28.34  0.005925  (-0.074047 -0.009348 -0.018840)
 11:    407.24   0.001046    5.28  0.000801  ( 0.026929  0.006325 -0.006002)
 12:    514.78   0.000817    4.13  0.000495  (-0.019628  0.000453  0.010465)
 13:    744.94   0.000780    3.94  0.000327  (-0.015075 -0.004349  0.008980)
 14:    823.20   0.000360    1.82  0.000137  (-0.003592 -0.006567 -0.008973)
 15:    843.86   0.025058  126.63  0.009267  ( 0.049500 -0.014310 -0.081312)
 16:    872.00   0.000373    1.89  0.000134  ( 0.000614 -0.010318 -0.005179)
 17:    952.65   0.000310    1.57  0.000102  ( 0.009231  0.000820  0.003966)
 18:    992.29   0.001891    9.55  0.000595  (-0.017437  0.005851  0.016009)
 19:   1051.89   0.000553    2.79  0.000164  (-0.005000 -0.008398  0.008270)
 20:   1088.94   0.000197    0.99  0.000056  ( 0.001601  0.007048 -0.002043)
 21:   1145.45   0.002393   12.09  0.000652  (-0.008230 -0.002812  0.024006)
 22:   1163.12   0.000897    4.53  0.000241  (-0.005824 -0.013567 -0.004762)
 23:   1208.49   0.000445    2.25  0.000115  ( 0.007183 -0.003250 -0.007266)
 24:   1257.13   0.000363    1.83  0.000090  ( 0.002973 -0.008719 -0.002283)
 25:   1301.94   0.000106    0.54  0.000025  ( 0.003066  0.002196  0.003347)
 26:   1347.73   0.000973    4.92  0.000225  ( 0.005952  0.012063 -0.006653)
 27:   1364.52   0.000329    1.66  0.000075  (-0.007876  0.002508 -0.002622)
 28:   1399.50   0.000350    1.77  0.000078  (-0.007679 -0.000366  0.004362)
 29:   1416.04   0.001274    6.44  0.000281  ( 0.012153 -0.008457 -0.007840)
 30:   1445.70   0.001116    5.64  0.000241  ( 0.008694  0.009986 -0.008102)
 31:   1454.36   0.001586    8.01  0.000340  ( 0.003129  0.016372 -0.007902)
 32:   1474.89   0.000109    0.55  0.000023  (-0.001166 -0.003681 -0.002873)
 33:   1476.67   0.001440    7.28  0.000304  ( 0.005202  0.014234 -0.008640)
 34:   1486.09   0.001938    9.79  0.000407  ( 0.015575  0.004731  0.011913)
 35:   1503.25   0.000912    4.61  0.000189  (-0.010816 -0.008508 -0.000163)
 36:   1648.55   0.006754   34.13  0.001279  (-0.010552 -0.032805  0.009541)
 37:   2987.33   0.014071   71.11  0.001470  ( 0.010693 -0.013623 -0.034204)
 38:   3057.75   0.005593   28.27  0.000571  ( 0.009168 -0.017796 -0.013041)
 39:   3062.66   0.004991   25.22  0.000509  (-0.002963 -0.015946  0.015667)
 40:   3069.51   0.003174   16.04  0.000323  (-0.006001 -0.006581 -0.015601)
 41:   3105.70   0.007448   37.64  0.000748  ( 0.019270 -0.014484  0.012931)
 42:   3117.00   0.003244   16.39  0.000325  (-0.005802 -0.017062 -0.000133)
 43:   3128.28   0.006492   32.81  0.000648  ( 0.014952 -0.007454 -0.019197)
 44:   3149.14   0.008028   40.57  0.000796  ( 0.018844  0.019118 -0.008655)
 45:   3159.16   0.004920   24.86  0.000486  ( 0.014079 -0.003039  0.016689)
 46:   3563.50   0.000112    0.57  0.000010  ( 0.000076  0.002603  0.001739)
 47:   3645.49   0.000441    2.23  0.000038  (-0.005423 -0.001030 -0.002701)

--------------------------
THERMOCHEMISTRY AT 298.15K
--------------------------

Temperature         ... 298.15 K
Pressure            ... 1.00 atm
Total Mass          ... 73.14 AMU

Throughout the following assumptions are being made:
  (1) The electronic state is orbitally nondegenerate
  (2) There are no thermally accessible electronically excited states
  (3) Hindered rotations indicated by low frequency modes are not
      treated as such but are treated as vibrations and this may
      cause some error
  (4) All equations used are the standard statistical mechanics
      equations for an ideal gas
  (5) All vibrations are strictly harmonic

freq.      92.68  E(vib)   ...       0.47
freq.     168.37  E(vib)   ...       0.38
freq.     255.90  E(vib)   ...       0.30
freq.     276.21  E(vib)   ...       0.28
freq.     295.40  E(vib)   ...       0.27
freq.     407.24  E(vib)   ...       0.19
freq.     514.78  E(vib)   ...       0.13
freq.     744.94  E(vib)   ...       0.06
freq.     823.20  E(vib)   ...       0.05
freq.     843.86  E(vib)   ...       0.04
freq.     872.00  E(vib)   ...       0.04
freq.     952.65  E(vib)   ...       0.03
freq.     992.29  E(vib)   ...       0.02
freq.    1051.89  E(vib)   ...       0.02
freq.    1088.94  E(vib)   ...       0.02
freq.    1145.45  E(vib)   ...       0.01
freq.    1163.12  E(vib)   ...       0.01
freq.    1208.49  E(vib)   ...       0.01
freq.    1257.13  E(vib)   ...       0.01
freq.    1301.94  E(vib)   ...       0.01
freq.    1347.73  E(vib)   ...       0.01
freq.    1364.52  E(vib)   ...       0.01
freq.    1399.50  E(vib)   ...       0.00
freq.    1416.04  E(vib)   ...       0.00
freq.    1445.70  E(vib)   ...       0.00
freq.    1454.36  E(vib)   ...       0.00
freq.    1474.89  E(vib)   ...       0.00
freq.    1476.67  E(vib)   ...       0.00
freq.    1486.09  E(vib)   ...       0.00
freq.    1503.25  E(vib)   ...       0.00
freq.    1648.55  E(vib)   ...       0.00
freq.    2987.33  E(vib)   ...       0.00
freq.    3057.75  E(vib)   ...       0.00
freq.    3062.66  E(vib)   ...       0.00
freq.    3069.51  E(vib)   ...       0.00
freq.    3105.70  E(vib)   ...       0.00
freq.    3117.00  E(vib)   ...       0.00
freq.    3128.28  E(vib)   ...       0.00
freq.    3149.14  E(vib)   ...       0.00
freq.    3159.16  E(vib)   ...       0.00
freq.    3563.50  E(vib)   ...       0.00
freq.    3645.49  E(vib)   ...       0.00

------------
INNER ENERGY
------------

The inner energy is: U= E(el) + E(ZPE) + E(vib) + E(rot) + E(trans)
    E(el)   - is the total energy from the electronic structure calculation
              = E(kin-el) + E(nuc-el) + E(el-el) + E(nuc-nuc)
    E(ZPE)  - the the zero temperature vibrational energy from the frequency calculation
    E(vib)  - the the finite temperature correction to E(ZPE) due to population
              of excited vibrational states
    E(rot)  - is the rotational thermal energy
    E(trans)- is the translational thermal energy

Summary of contributions to the inner energy U:
Electronic energy                ...   -213.58968297 Eh
Zero point energy                ...      0.15154209 Eh      95.09 kcal/mol
Thermal vibrational correction   ...      0.00381322 Eh       2.39 kcal/mol
Thermal rotational correction    ...      0.00141627 Eh       0.89 kcal/mol
Thermal translational correction ...      0.00141627 Eh       0.89 kcal/mol
-----------------------------------------------------------------------
Total thermal energy                   -213.43149513 Eh

Summary of corrections to the electronic energy:
(perhaps to be used in another calculation)
Total thermal correction                  0.00664576 Eh       4.17 kcal/mol
Non-thermal (ZPE) correction              0.15154209 Eh      95.09 kcal/mol
-----------------------------------------------------------------------
Total correction                          0.15818785 Eh      99.26 kcal/mol

--------
ENTHALPY
--------

The enthalpy is H = U + kB*T
                kB is Boltzmann's constant
Total free energy                 ...   -213.43149513 Eh
Thermal Enthalpy correction       ...      0.00094421 Eh       0.59 kcal/mol
-----------------------------------------------------------------------
Total Enthalpy                    ...   -213.43055092 Eh

Note: Only C1 symmetry has been detected, increase convergence thresholds
      if your molecule has a higher symmetry. Symmetry factor of 1.0 is
      used for the rotational entropy correction.

Note: Rotational entropy computed according to Herzberg
Infrared and Raman Spectra, Chapter V,1, Van Nostrand Reinhold, 1945
Point Group:  C1, Symmetry Number:   1
Rotational constants in cm-1:     0.261175     0.101964     0.091512

Vibrational entropy computed according to the QRRHO of S. Grimme
Chem.Eur.J. 2012 18 9955

-------
ENTROPY
-------

The entropy contributions are T*S = T*(S(el)+S(vib)+S(rot)+S(trans))
     S(el)   - electronic entropy
     S(vib)  - vibrational entropy
     S(rot)  - rotational entropy
     S(trans)- translational entropy
The entropies will be listed as multiplied by the temperature to get
units of energy

Electronic entropy                ...      0.00000000 Eh      0.00 kcal/mol
Vibrational entropy               ...      0.00637342 Eh      4.00 kcal/mol
Rotational entropy                ...      0.01235137 Eh      7.75 kcal/mol
Translational entropy             ...      0.01842822 Eh     11.56 kcal/mol
-----------------------------------------------------------------------
Final entropy term                ...      0.03715301 Eh     23.31 kcal/mol

In case the symmetry of your molecule has not been determined correctly
or in case you have a reason to use a different symmetry number we print
out the resulting rotational entropy values for sn=1,12 :
 --------------------------------------------------------
|  sn= 1 | S(rot)=       0.01235137 Eh      7.75 kcal/mol|
|  sn= 2 | S(rot)=       0.01169692 Eh      7.34 kcal/mol|
|  sn= 3 | S(rot)=       0.01131408 Eh      7.10 kcal/mol|
|  sn= 4 | S(rot)=       0.01104246 Eh      6.93 kcal/mol|
|  sn= 5 | S(rot)=       0.01083177 Eh      6.80 kcal/mol|
|  sn= 6 | S(rot)=       0.01065963 Eh      6.69 kcal/mol|
|  sn= 7 | S(rot)=       0.01051408 Eh      6.60 kcal/mol|
|  sn= 8 | S(rot)=       0.01038800 Eh      6.52 kcal/mol|
|  sn= 9 | S(rot)=       0.01027680 Eh      6.45 kcal/mol|
|  sn=10 | S(rot)=       0.01017732 Eh      6.39 kcal/mol|
|  sn=11 | S(rot)=       0.01008733 Eh      6.33 kcal/mol|
|  sn=12 | S(rot)=       0.01000517 Eh      6.28 kcal/mol|
 --------------------------------------------------------

-------------------
GIBBS FREE ENERGY
-------------------

The Gibbs free energy is G = H - T*S

                             ****ORCA TERMINATED NORMALLY****
TOTAL RUN TIME: 0 days 0 hours 4 minutes 30 seconds 125 msec
