                         Program Version 5.0.4 -  RELEASE  -
|  1> # ORCA 5.0.4 - /users/bwb16179/postgrad/2024_06/pKa_Reviewer_Comments/CREST_Confs/butylamine/butylamine_prot_aq_2.inp # write input file
|  2> # Basic Mode
|  3> #
|  4> ! Opt Freq wB97X Def2-SVP D4 SlowConv TightSCF Defgrid2 Def2/J RIJCOSX
|  5>
|  6> %PAL NPROCS 4 END
|  7>
|  8> %maxcore 4500
|  9>
| 10> %geom
| 11> Maxiter 150
| 12> END
| 13>
| 14> * xyzfile 1 1 butylamine_prot_aq_2.xyz
| 15>
| 16>                          ****END OF INPUT****
 Total Charge           Charge          ....    1
 Multiplicity           Mult            ....    1
 Number of Electrons    NEL             ....   42
Dispersion correction           -0.001300964
FINAL SINGLE POINT ENERGY      -213.956046694645
Dispersion correction            ... Starting D4
Dispersion correction           -0.001298034
FINAL SINGLE POINT ENERGY      -213.957788817009
Dispersion correction            ... Starting D4
Dispersion correction           -0.001297202
FINAL SINGLE POINT ENERGY      -213.958132335198
Dispersion correction            ... Starting D4
FINAL SINGLE POINT ENERGY      -213.958215059133
Dispersion correction           -0.001297302
FINAL SINGLE POINT ENERGY      -213.958222273504
Dispersion correction            ... Starting D4
Dispersion correction           -0.001297362
FINAL SINGLE POINT ENERGY      -213.958224190936
Dispersion correction            ... Starting D4
                    ***********************HURRAY********************

CARTESIAN COORDINATES (ANGSTROEM)
---------------------------------
  C     -2.171054    0.523066    0.366995
  C     -1.419331   -0.394854   -0.590712
  H     -2.214817    0.097041    1.382126
  H     -3.206494    0.667795    0.028805
  H     -1.720621    1.526573    0.437047
  C      0.003753   -0.744505   -0.144222
  H     -1.383416    0.051177   -1.599362
  H     -1.969984   -1.341072   -0.703131
  C      0.904250    0.476715   -0.081056
  H      0.434564   -1.479323   -0.846886
  H     -0.031639   -1.226746    0.849727
  N      2.299705    0.088365    0.335947
  H      0.557469    1.217637    0.652900
  H      0.996196    0.973691   -1.058095
  H      2.299956   -0.362667    1.260523
  H      2.932491    0.896748    0.386708
  H      2.711777   -0.585781   -0.322812

 Multiplicity           Mult            ....    1
 Number of Electrons    NEL             ....   42
 Basis Dimension        Dim             ....  130

ORBITAL ENERGIES
----------------

  NO   OCC          E(Eh)            E(eV)
   0   2.0000     -14.742013      -401.1506
   1   2.0000     -10.518085      -286.2117
   2   2.0000     -10.445557      -284.2381
   3   2.0000     -10.411231      -283.3040
   4   2.0000     -10.388742      -282.6921
   5   2.0000      -1.329357       -36.1737
   6   2.0000      -1.098428       -29.8897
   7   2.0000      -1.013273       -27.5726
   8   2.0000      -0.944060       -25.6892
   9   2.0000      -0.905530       -24.6407
  10   2.0000      -0.897502       -24.4223
  11   2.0000      -0.835283       -22.7292
  12   2.0000      -0.803156       -21.8550
  13   2.0000      -0.748907       -20.3788
  14   2.0000      -0.701530       -19.0896
  15   2.0000      -0.674116       -18.3436
  16   2.0000      -0.661950       -18.0126
  17   2.0000      -0.636064       -17.3082
  18   2.0000      -0.588801       -16.0221
  19   2.0000      -0.579240       -15.7619
  20   2.0000      -0.570441       -15.5225
  21   0.0000      -0.082781        -2.2526
  22   0.0000      -0.021621        -0.5883
  23   0.0000      -0.019513        -0.5310
  24   0.0000      -0.004169        -0.1134
  25   0.0000       0.032224         0.8769

MULLIKEN ATOMIC CHARGES
-----------------------
   0 C :   -0.077582
   1 C :   -0.067322
   2 H :    0.048478
   3 H :    0.078221
   4 H :    0.035584
   5 C :   -0.102059
   6 H :    0.051755
   7 H :    0.072086
   8 C :   -0.004249
   9 H :    0.060481
  10 H :    0.055363
  11 N :   -0.008979
  12 H :    0.103179
  13 H :    0.104604
  14 H :    0.215269
  15 H :    0.220275
  16 H :    0.214896
Sum of atomic charges:    1.0000000

LOEWDIN ATOMIC CHARGES
----------------------
   0 C :   -0.063983
   1 C :   -0.034758
   2 H :    0.033444
   3 H :    0.049814
   4 H :    0.023069
   5 C :   -0.052198
   6 H :    0.035229
   7 H :    0.047523
   8 C :    0.058569
   9 H :    0.038167
  10 H :    0.035577
  11 N :    0.290004
  12 H :    0.051244
  13 H :    0.054557
  14 H :    0.143925
  15 H :    0.146298
  16 H :    0.143518

  Mayer bond orders larger than 0.100000
B(  0-C ,  1-C ) :   1.0730 B(  0-C ,  2-H ) :   0.9763 B(  0-C ,  3-H ) :   0.9685
B(  0-C ,  4-H ) :   0.9742 B(  1-C ,  5-C ) :   1.0730 B(  1-C ,  6-H ) :   0.9561
B(  1-C ,  7-H ) :   0.9501 B(  5-C ,  8-C ) :   1.0403 B(  5-C ,  9-H ) :   0.9502
B(  5-C , 10-H ) :   0.9480 B(  8-C , 11-N ) :   0.9096 B(  8-C , 12-H ) :   0.9509
B(  8-C , 13-H ) :   0.9534 B( 11-N , 14-H ) :   0.9339 B( 11-N , 15-H ) :   0.9318
B( 11-N , 16-H ) :   0.9339

Dispersion correction           -0.001297325
FINAL SINGLE POINT ENERGY      -213.958224210016

DIPOLE MOMENT
-------------
                                X             Y             Z
Electronic contribution:      3.74662      -0.28285      -0.03562
Nuclear contribution   :     -0.45313       0.40869       0.47330
                        -----------------------------------------
Total Dipole Moment    :      3.29349       0.12584       0.43769
                        -----------------------------------------
Magnitude (a.u.)       :      3.32483
Magnitude (Debye)      :      8.45104

Dispersion correction in the Hessian             ... Starting D4

VIBRATIONAL FREQUENCIES
-----------------------

Scaling factor for frequencies =  1.000000000  (already applied!)

   0:         0.00 cm**-1
   1:         0.00 cm**-1
   2:         0.00 cm**-1
   3:         0.00 cm**-1
   4:         0.00 cm**-1
   5:         0.00 cm**-1
   6:        83.96 cm**-1
   7:       105.36 cm**-1
   8:       210.92 cm**-1
   9:       236.20 cm**-1
  10:       283.14 cm**-1
  11:       338.07 cm**-1
  12:       477.46 cm**-1
  13:       752.74 cm**-1
  14:       793.89 cm**-1
  15:       881.69 cm**-1
  16:       900.94 cm**-1
  17:       928.06 cm**-1
  18:      1004.69 cm**-1
  19:      1011.17 cm**-1
  20:      1042.60 cm**-1
  21:      1112.92 cm**-1
  22:      1170.02 cm**-1
  23:      1196.62 cm**-1
  24:      1285.11 cm**-1
  25:      1313.15 cm**-1
  26:      1344.22 cm**-1
  27:      1355.07 cm**-1
  28:      1383.97 cm**-1
  29:      1421.88 cm**-1
  30:      1428.10 cm**-1
  31:      1469.70 cm**-1
  32:      1473.80 cm**-1
  33:      1484.04 cm**-1
  34:      1486.38 cm**-1
  35:      1491.18 cm**-1
  36:      1506.51 cm**-1
  37:      1625.99 cm**-1
  38:      1634.62 cm**-1
  39:      3057.55 cm**-1
  40:      3068.15 cm**-1
  41:      3086.18 cm**-1
  42:      3119.14 cm**-1
  43:      3122.10 cm**-1
  44:      3145.38 cm**-1
  45:      3162.45 cm**-1
  46:      3185.23 cm**-1
  47:      3198.02 cm**-1
  48:      3440.27 cm**-1
  49:      3533.62 cm**-1
  50:      3541.07 cm**-1

IR SPECTRUM
-----------

 Mode   freq       eps      Int      T**2         TX        TY        TZ
       cm**-1   L/(mol*cm) km/mol    a.u.
----------------------------------------------------------------------------
  6:     83.96   0.000384    1.94  0.001427  ( 0.006730  0.001958 -0.037126)
  7:    105.36   0.001071    5.41  0.003172  (-0.036769  0.014943  0.039957)
  8:    210.92   0.000678    3.43  0.001003  ( 0.010632 -0.029839  0.000159)
  9:    236.20   0.000024    0.12  0.000032  (-0.000148  0.005424 -0.001587)
 10:    283.14   0.000257    1.30  0.000284  ( 0.006554  0.014746 -0.004830)
 11:    338.07   0.001328    6.71  0.001226  (-0.031172 -0.015248 -0.004662)
 12:    477.46   0.001082    5.47  0.000707  (-0.024125 -0.008188 -0.007617)
 13:    752.74   0.001067    5.39  0.000442  (-0.012152 -0.005463  0.016270)
 14:    793.89   0.000836    4.22  0.000329  ( 0.005236 -0.009805 -0.014316)
 15:    881.69   0.001804    9.12  0.000639  (-0.018537 -0.017171 -0.000384)
 16:    900.94   0.001242    6.28  0.000430  ( 0.002744  0.004125 -0.020142)
 17:    928.06   0.002285   11.55  0.000768  (-0.022846 -0.013373 -0.008217)
 18:   1004.69   0.000758    3.83  0.000235  (-0.002053 -0.007204  0.013392)
 19:   1011.17   0.001549    7.83  0.000478  (-0.017205  0.010998  0.007815)
 20:   1042.60   0.001832    9.26  0.000548  (-0.007700 -0.022102 -0.000684)
 21:   1112.92   0.000689    3.48  0.000193  (-0.013466  0.001897 -0.002854)
 22:   1170.02   0.001968    9.94  0.000525  (-0.015153 -0.015013 -0.008351)
 23:   1196.62   0.000704    3.56  0.000184  (-0.001726 -0.007138  0.011383)
 24:   1285.11   0.000305    1.54  0.000074  (-0.006231 -0.003068  0.005090)
 25:   1313.15   0.000190    0.96  0.000045  (-0.004803  0.002683 -0.003871)
 26:   1344.22   0.001579    7.98  0.000367  (-0.006022  0.006569  0.016948)
 27:   1355.07   0.000557    2.81  0.000128  ( 0.005435  0.002493 -0.009615)
 28:   1383.97   0.000584    2.95  0.000132  (-0.011029  0.002092 -0.002402)
 29:   1421.88   0.002514   12.70  0.000552  ( 0.022929 -0.003496 -0.003707)
 30:   1428.10   0.000817    4.13  0.000179  ( 0.000625 -0.007240 -0.011214)
 31:   1469.70   0.000520    2.63  0.000111  ( 0.000325 -0.003450 -0.009924)
 32:   1473.80   0.001011    5.11  0.000214  (-0.008903 -0.011599 -0.000550)
 33:   1484.04   0.000989    5.00  0.000208  (-0.011281 -0.007513 -0.004929)
 34:   1486.38   0.002323   11.74  0.000488  ( 0.001025  0.014591 -0.016546)
 35:   1491.18   0.003475   17.56  0.000727  ( 0.008826 -0.024922  0.005312)
 36:   1506.51   0.029877  150.99  0.006189  (-0.073775  0.014981 -0.022841)
 37:   1625.99   0.009708   49.06  0.001863  ( 0.011558 -0.007246 -0.040951)
 38:   1634.62   0.006981   35.28  0.001333  ( 0.013033  0.033903 -0.003664)
 39:   3057.55   0.002840   14.35  0.000290  ( 0.010403 -0.012580  0.004835)
 40:   3068.15   0.002402   12.14  0.000244  ( 0.000952  0.010577  0.011470)
 41:   3086.18   0.001944    9.82  0.000197  (-0.003337 -0.001325 -0.013552)
 42:   3119.14   0.002379   12.02  0.000238  (-0.004267  0.004314  0.014186)
 43:   3122.10   0.000232    1.17  0.000023  (-0.000947 -0.003735  0.002883)
 44:   3145.38   0.000060    0.30  0.000006  (-0.002026 -0.001264  0.000478)
 45:   3162.45   0.004601   23.25  0.000454  (-0.008700 -0.017010  0.009431)
 46:   3185.23   0.000910    4.60  0.000089  ( 0.007089  0.000516  0.006218)
 47:   3198.02   0.000053    0.27  0.000005  ( 0.000362  0.001456  0.001707)
 48:   3440.27   0.012037   60.83  0.001092  ( 0.031424 -0.006247  0.008084)
 49:   3533.62   0.022788  115.16  0.002013  (-0.009488  0.009300  0.042848)
 50:   3541.07   0.025451  128.62  0.002243  (-0.017444 -0.043714  0.005264)

--------------------------
THERMOCHEMISTRY AT 298.15K
--------------------------

Temperature         ... 298.15 K
Pressure            ... 1.00 atm
Total Mass          ... 74.15 AMU

Throughout the following assumptions are being made:
  (1) The electronic state is orbitally nondegenerate
  (2) There are no thermally accessible electronically excited states
  (3) Hindered rotations indicated by low frequency modes are not
      treated as such but are treated as vibrations and this may
      cause some error
  (4) All equations used are the standard statistical mechanics
      equations for an ideal gas
  (5) All vibrations are strictly harmonic

freq.      83.96  E(vib)   ...       0.48
freq.     105.36  E(vib)   ...       0.45
freq.     210.92  E(vib)   ...       0.34
freq.     236.20  E(vib)   ...       0.32
freq.     283.14  E(vib)   ...       0.28
freq.     338.07  E(vib)   ...       0.24
freq.     477.46  E(vib)   ...       0.15
freq.     752.74  E(vib)   ...       0.06
freq.     793.89  E(vib)   ...       0.05
freq.     881.69  E(vib)   ...       0.04
freq.     900.94  E(vib)   ...       0.03
freq.     928.06  E(vib)   ...       0.03
freq.    1004.69  E(vib)   ...       0.02
freq.    1011.17  E(vib)   ...       0.02
freq.    1042.60  E(vib)   ...       0.02
freq.    1112.92  E(vib)   ...       0.01
freq.    1170.02  E(vib)   ...       0.01
freq.    1196.62  E(vib)   ...       0.01
freq.    1285.11  E(vib)   ...       0.01
freq.    1313.15  E(vib)   ...       0.01
freq.    1344.22  E(vib)   ...       0.01
freq.    1355.07  E(vib)   ...       0.01
freq.    1383.97  E(vib)   ...       0.00
freq.    1421.88  E(vib)   ...       0.00
freq.    1428.10  E(vib)   ...       0.00
freq.    1469.70  E(vib)   ...       0.00
freq.    1473.80  E(vib)   ...       0.00
freq.    1484.04  E(vib)   ...       0.00
freq.    1486.38  E(vib)   ...       0.00
freq.    1491.18  E(vib)   ...       0.00
freq.    1506.51  E(vib)   ...       0.00
freq.    1625.99  E(vib)   ...       0.00
freq.    1634.62  E(vib)   ...       0.00
freq.    3057.55  E(vib)   ...       0.00
freq.    3068.15  E(vib)   ...       0.00
freq.    3086.18  E(vib)   ...       0.00
freq.    3119.14  E(vib)   ...       0.00
freq.    3122.10  E(vib)   ...       0.00
freq.    3145.38  E(vib)   ...       0.00
freq.    3162.45  E(vib)   ...       0.00
freq.    3185.23  E(vib)   ...       0.00
freq.    3198.02  E(vib)   ...       0.00
freq.    3440.27  E(vib)   ...       0.00
freq.    3533.62  E(vib)   ...       0.00
freq.    3541.07  E(vib)   ...       0.00

------------
INNER ENERGY
------------

The inner energy is: U= E(el) + E(ZPE) + E(vib) + E(rot) + E(trans)
    E(el)   - is the total energy from the electronic structure calculation
              = E(kin-el) + E(nuc-el) + E(el-el) + E(nuc-nuc)
    E(ZPE)  - the the zero temperature vibrational energy from the frequency calculation
    E(vib)  - the the finite temperature correction to E(ZPE) due to population
              of excited vibrational states
    E(rot)  - is the rotational thermal energy
    E(trans)- is the translational thermal energy

Summary of contributions to the inner energy U:
Electronic energy                ...   -213.95822421 Eh
Zero point energy                ...      0.16606317 Eh     104.21 kcal/mol
Thermal vibrational correction   ...      0.00419315 Eh       2.63 kcal/mol
Thermal rotational correction    ...      0.00141627 Eh       0.89 kcal/mol
Thermal translational correction ...      0.00141627 Eh       0.89 kcal/mol
-----------------------------------------------------------------------
Total thermal energy                   -213.78513535 Eh

Summary of corrections to the electronic energy:
(perhaps to be used in another calculation)
Total thermal correction                  0.00702569 Eh       4.41 kcal/mol
Non-thermal (ZPE) correction              0.16606317 Eh     104.21 kcal/mol
-----------------------------------------------------------------------
Total correction                          0.17308886 Eh     108.61 kcal/mol

--------
ENTHALPY
--------

The enthalpy is H = U + kB*T
                kB is Boltzmann's constant
Total free energy                 ...   -213.78513535 Eh
Thermal Enthalpy correction       ...      0.00094421 Eh       0.59 kcal/mol
-----------------------------------------------------------------------
Total Enthalpy                    ...   -213.78419114 Eh

Note: Only C1 symmetry has been detected, increase convergence thresholds
      if your molecule has a higher symmetry. Symmetry factor of 1.0 is
      used for the rotational entropy correction.

Note: Rotational entropy computed according to Herzberg
Infrared and Raman Spectra, Chapter V,1, Van Nostrand Reinhold, 1945
Point Group:  C1, Symmetry Number:   1
Rotational constants in cm-1:     0.385282     0.074935     0.069135

Vibrational entropy computed according to the QRRHO of S. Grimme
Chem.Eur.J. 2012 18 9955

-------
ENTROPY
-------

The entropy contributions are T*S = T*(S(el)+S(vib)+S(rot)+S(trans))
     S(el)   - electronic entropy
     S(vib)  - vibrational entropy
     S(rot)  - rotational entropy
     S(trans)- translational entropy
The entropies will be listed as multiplied by the temperature to get
units of energy

Electronic entropy                ...      0.00000000 Eh      0.00 kcal/mol
Vibrational entropy               ...      0.00724704 Eh      4.55 kcal/mol
Rotational entropy                ...      0.01244561 Eh      7.81 kcal/mol
Translational entropy             ...      0.01844761 Eh     11.58 kcal/mol
-----------------------------------------------------------------------
Final entropy term                ...      0.03814025 Eh     23.93 kcal/mol

In case the symmetry of your molecule has not been determined correctly
or in case you have a reason to use a different symmetry number we print
out the resulting rotational entropy values for sn=1,12 :
 --------------------------------------------------------
|  sn= 1 | S(rot)=       0.01244561 Eh      7.81 kcal/mol|
|  sn= 2 | S(rot)=       0.01179115 Eh      7.40 kcal/mol|
|  sn= 3 | S(rot)=       0.01140832 Eh      7.16 kcal/mol|
|  sn= 4 | S(rot)=       0.01113670 Eh      6.99 kcal/mol|
|  sn= 5 | S(rot)=       0.01092601 Eh      6.86 kcal/mol|
|  sn= 6 | S(rot)=       0.01075386 Eh      6.75 kcal/mol|
|  sn= 7 | S(rot)=       0.01060832 Eh      6.66 kcal/mol|
|  sn= 8 | S(rot)=       0.01048224 Eh      6.58 kcal/mol|
|  sn= 9 | S(rot)=       0.01037103 Eh      6.51 kcal/mol|
|  sn=10 | S(rot)=       0.01027155 Eh      6.45 kcal/mol|
|  sn=11 | S(rot)=       0.01018156 Eh      6.39 kcal/mol|
|  sn=12 | S(rot)=       0.01009941 Eh      6.34 kcal/mol|
 --------------------------------------------------------

-------------------
GIBBS FREE ENERGY
-------------------

                             ****ORCA TERMINATED NORMALLY****
TOTAL RUN TIME: 0 days 0 hours 4 minutes 1 seconds 799 msec
