                         Program Version 5.0.4 -  RELEASE  -
|  1> # ORCA 5.0.4 - /users/bwb16179/postgrad/2024_06/pKa_Reviewer_Comments/CREST_Confs/butylamine/butylamine_prot_aq_6.inp # write input file
|  2> # Basic Mode
|  3> #
|  4> ! Opt Freq wB97X Def2-SVP D4 SlowConv TightSCF Defgrid2 Def2/J RIJCOSX
|  5>
|  6> %PAL NPROCS 4 END
|  7>
|  8> %maxcore 4500
|  9>
| 10> %geom
| 11> Maxiter 150
| 12> END
| 13>
| 14> * xyzfile 1 1 butylamine_prot_aq_6.xyz
| 15>
| 16>                          ****END OF INPUT****
 Total Charge           Charge          ....    1
 Multiplicity           Mult            ....    1
 Number of Electrons    NEL             ....   42
Dispersion correction           -0.001308566
FINAL SINGLE POINT ENERGY      -213.952319696424
Dispersion correction            ... Starting D4
Dispersion correction           -0.001307910
FINAL SINGLE POINT ENERGY      -213.954289847124
Dispersion correction            ... Starting D4
Dispersion correction           -0.001309587
FINAL SINGLE POINT ENERGY      -213.954745549113
Dispersion correction            ... Starting D4
FINAL SINGLE POINT ENERGY      -213.954853667262
FINAL SINGLE POINT ENERGY      -213.954906465050
FINAL SINGLE POINT ENERGY      -213.955128485853
FINAL SINGLE POINT ENERGY      -213.955113370627
FINAL SINGLE POINT ENERGY      -213.955670188942
FINAL SINGLE POINT ENERGY      -213.956199845760
FINAL SINGLE POINT ENERGY      -213.956641366512
FINAL SINGLE POINT ENERGY      -213.957363063160
FINAL SINGLE POINT ENERGY      -213.957689633000
FINAL SINGLE POINT ENERGY      -213.958091750397
FINAL SINGLE POINT ENERGY      -213.958473241968
FINAL SINGLE POINT ENERGY      -213.958755781842
FINAL SINGLE POINT ENERGY      -213.958931072375
FINAL SINGLE POINT ENERGY      -213.959005147428
Dispersion correction           -0.001360350
FINAL SINGLE POINT ENERGY      -213.959038482742
Dispersion correction            ... Starting D4
Dispersion correction           -0.001359983
FINAL SINGLE POINT ENERGY      -213.959042818284
Dispersion correction            ... Starting D4
                    ***********************HURRAY********************

CARTESIAN COORDINATES (ANGSTROEM)
---------------------------------
  C     -1.895321   -0.253788   -0.641447
  C     -1.101492   -0.452519    0.645656
  H     -1.277316   -0.343177   -1.552082
  H     -2.369565    0.739805   -0.665072
  H     -2.694694   -1.002467   -0.729918
  C     -0.043836    0.624450    0.908246
  H     -0.642687   -1.461037    0.663304
  H     -1.787548   -0.459262    1.506095
  C      0.987514    0.792670   -0.195213
  H      0.467993    0.437762    1.868085
  H     -0.532701    1.605869    1.020606
  N      1.712900   -0.504263   -0.454620
  H      1.755090    1.534915    0.063876
  H      0.532674    1.085327   -1.152104
  H      2.397887   -0.424039   -1.216020
  H      1.048222   -1.248267   -0.707861
  H      2.215653   -0.826526    0.382893

 Multiplicity           Mult            ....    1
 Number of Electrons    NEL             ....   42
 Basis Dimension        Dim             ....  130

ORBITAL ENERGIES
----------------

  NO   OCC          E(Eh)            E(eV)
   0   2.0000     -14.739007      -401.0688
   1   2.0000     -10.517450      -286.1944
   2   2.0000     -10.445655      -284.2407
   3   2.0000     -10.427387      -283.7436
   4   2.0000     -10.405467      -283.1472
   5   2.0000      -1.327011       -36.1098
   6   2.0000      -1.100521       -29.9467
   7   2.0000      -1.024665       -27.8826
   8   2.0000      -0.947694       -25.7881
   9   2.0000      -0.902864       -24.5682
  10   2.0000      -0.896245       -24.3881
  11   2.0000      -0.859004       -23.3747
  12   2.0000      -0.786810       -21.4102
  13   2.0000      -0.747147       -20.3309
  14   2.0000      -0.724277       -19.7086
  15   2.0000      -0.678650       -18.4670
  16   2.0000      -0.663274       -18.0486
  17   2.0000      -0.648824       -17.6554
  18   2.0000      -0.599466       -16.3123
  19   2.0000      -0.591786       -16.1033
  20   2.0000      -0.585451       -15.9309
  21   0.0000      -0.083936        -2.2840
  22   0.0000      -0.022483        -0.6118
  23   0.0000      -0.018375        -0.5000
  24   0.0000       0.005166         0.1406
  25   0.0000       0.028751         0.7823

MULLIKEN ATOMIC CHARGES
-----------------------
   0 C :   -0.064863
   1 C :   -0.119663
   2 H :    0.012236
   3 H :    0.066773
   4 H :    0.082878
   5 C :   -0.083044
   6 H :    0.020279
   7 H :    0.085813
   8 C :   -0.010206
   9 H :    0.069373
  10 H :    0.094203
  11 N :   -0.018974
  12 H :    0.111936
  13 H :    0.107531
  14 H :    0.221195
  15 H :    0.209638
  16 H :    0.214895
Sum of atomic charges:    1.0000000

LOEWDIN ATOMIC CHARGES
----------------------
   0 C :   -0.064107
   1 C :   -0.053362
   2 H :    0.013880
   3 H :    0.042243
   4 H :    0.050828
   5 C :   -0.047931
   6 H :    0.015771
   7 H :    0.054671
   8 C :    0.058705
   9 H :    0.041848
  10 H :    0.061247
  11 N :    0.289721
  12 H :    0.056641
  13 H :    0.051851
  14 H :    0.146063
  15 H :    0.137936
  16 H :    0.143994

  Mayer bond orders larger than 0.100000
B(  0-C ,  1-C ) :   1.0628 B(  0-C ,  2-H ) :   0.9702 B(  0-C ,  3-H ) :   0.9749
B(  0-C ,  4-H ) :   0.9684 B(  1-C ,  5-C ) :   1.0532 B(  1-C ,  6-H ) :   0.9541
B(  1-C ,  7-H ) :   0.9459 B(  5-C ,  8-C ) :   1.0584 B(  5-C ,  9-H ) :   0.9521
B(  5-C , 10-H ) :   0.9402 B(  8-C , 11-N ) :   0.8963 B(  8-C , 12-H ) :   0.9547
B(  8-C , 13-H ) :   0.9512 B( 11-N , 14-H ) :   0.9319 B( 11-N , 15-H ) :   0.9308
B( 11-N , 16-H ) :   0.9338

Dispersion correction           -0.001359786
FINAL SINGLE POINT ENERGY      -213.959045552952

DIPOLE MOMENT
-------------
                                X             Y             Z
Electronic contribution:      2.98124      -0.05878       0.16478
Nuclear contribution   :     -0.58549      -0.51023      -0.75065
                        -----------------------------------------
Total Dipole Moment    :      2.39575      -0.56901      -0.58587
                        -----------------------------------------
Magnitude (a.u.)       :      2.53113
Magnitude (Debye)      :      6.43362

Dispersion correction in the Hessian             ... Starting D4

VIBRATIONAL FREQUENCIES
-----------------------

Scaling factor for frequencies =  1.000000000  (already applied!)

   0:         0.00 cm**-1
   1:         0.00 cm**-1
   2:         0.00 cm**-1
   3:         0.00 cm**-1
   4:         0.00 cm**-1
   5:         0.00 cm**-1
   6:        37.91 cm**-1
   7:       149.53 cm**-1
   8:       196.36 cm**-1
   9:       264.95 cm**-1
  10:       271.85 cm**-1
  11:       384.98 cm**-1
  12:       501.08 cm**-1
  13:       730.44 cm**-1
  14:       799.74 cm**-1
  15:       846.55 cm**-1
  16:       893.71 cm**-1
  17:       916.14 cm**-1
  18:       995.98 cm**-1
  19:      1022.83 cm**-1
  20:      1030.80 cm**-1
  21:      1105.39 cm**-1
  22:      1154.54 cm**-1
  23:      1181.29 cm**-1
  24:      1268.36 cm**-1
  25:      1308.84 cm**-1
  26:      1344.19 cm**-1
  27:      1365.90 cm**-1
  28:      1400.00 cm**-1
  29:      1423.46 cm**-1
  30:      1433.51 cm**-1
  31:      1458.23 cm**-1
  32:      1467.60 cm**-1
  33:      1478.95 cm**-1
  34:      1484.93 cm**-1
  35:      1487.14 cm**-1
  36:      1499.20 cm**-1
  37:      1618.35 cm**-1
  38:      1631.17 cm**-1
  39:      3039.58 cm**-1
  40:      3060.07 cm**-1
  41:      3085.07 cm**-1
  42:      3129.59 cm**-1
  43:      3139.76 cm**-1
  44:      3146.93 cm**-1
  45:      3153.96 cm**-1
  46:      3188.35 cm**-1
  47:      3202.84 cm**-1
  48:      3438.48 cm**-1
  49:      3528.55 cm**-1
  50:      3545.17 cm**-1

IR SPECTRUM
-----------

 Mode   freq       eps      Int      T**2         TX        TY        TZ
       cm**-1   L/(mol*cm) km/mol    a.u.
----------------------------------------------------------------------------
  6:     37.91   0.002190   11.07  0.018030  (-0.121374 -0.005421 -0.057171)
  7:    149.53   0.000366    1.85  0.000764  ( 0.024156  0.013107 -0.002923)
  8:    196.36   0.001065    5.38  0.001692  (-0.038378 -0.005006  0.013928)
  9:    264.95   0.001404    7.10  0.001654  (-0.036470 -0.003065  0.017726)
 10:    271.85   0.000605    3.06  0.000694  (-0.022003  0.002416  0.014300)
 11:    384.98   0.001106    5.59  0.000897  ( 0.020595 -0.001591 -0.021678)
 12:    501.08   0.000496    2.51  0.000309  (-0.007715  0.007233  0.014038)
 13:    730.44   0.001686    8.52  0.000720  (-0.026726  0.001086 -0.002197)
 14:    799.74   0.001296    6.55  0.000506  ( 0.019662  0.006827  0.008526)
 15:    846.55   0.000253    1.28  0.000093  ( 0.001725 -0.004985 -0.008081)
 16:    893.71   0.001297    6.55  0.000453  (-0.012563 -0.006469 -0.015907)
 17:    916.14   0.002473   12.50  0.000842  ( 0.024480  0.003883 -0.015097)
 18:    995.98   0.001288    6.51  0.000404  (-0.003986 -0.016555  0.010659)
 19:   1022.83   0.000944    4.77  0.000288  ( 0.004389  0.008960  0.013726)
 20:   1030.80   0.002376   12.01  0.000719  (-0.023561  0.003869  0.012213)
 21:   1105.39   0.000535    2.70  0.000151  (-0.002680  0.011782 -0.002232)
 22:   1154.54   0.000205    1.04  0.000055  (-0.004974 -0.001496  0.005339)
 23:   1181.29   0.002054   10.38  0.000543  (-0.009732 -0.014495  0.015422)
 24:   1268.36   0.000473    2.39  0.000116  (-0.001777 -0.004418  0.009678)
 25:   1308.84   0.000047    0.24  0.000011  ( 0.001233  0.001699  0.002613)
 26:   1344.19   0.003796   19.18  0.000881  (-0.021526 -0.012257 -0.016362)
 27:   1365.90   0.000824    4.16  0.000188  (-0.013187 -0.002888  0.002452)
 28:   1400.00   0.000227    1.15  0.000051  ( 0.001153 -0.004508  0.005383)
 29:   1423.46   0.001308    6.61  0.000287  (-0.015398  0.000901 -0.006989)
 30:   1433.51   0.000625    3.16  0.000136  ( 0.003398  0.000853  0.011123)
 31:   1458.23   0.002144   10.83  0.000459  (-0.006109  0.010729  0.017501)
 32:   1467.60   0.004257   21.51  0.000905  (-0.001229  0.028909  0.008242)
 33:   1478.95   0.002590   13.09  0.000546  ( 0.001636  0.020265 -0.011535)
 34:   1484.93   0.002007   10.14  0.000422  (-0.006296  0.018304 -0.006860)
 35:   1487.14   0.005830   29.46  0.001223  (-0.025141 -0.000722  0.024306)
 36:   1499.20   0.027988  141.44  0.005826  ( 0.046282 -0.058158 -0.017363)
 37:   1618.35   0.008038   40.62  0.001550  (-0.021570 -0.009446 -0.031551)
 38:   1631.17   0.005945   30.04  0.001137  ( 0.026356  0.012880 -0.016638)
 39:   3039.58   0.007195   36.36  0.000739  ( 0.011894 -0.023657  0.006129)
 40:   3060.07   0.003653   18.46  0.000373  (-0.006835  0.000283  0.018048)
 41:   3085.07   0.001426    7.21  0.000144  ( 0.008167  0.001308  0.008708)
 42:   3129.59   0.000103    0.52  0.000010  (-0.001679 -0.002049  0.001804)
 43:   3139.76   0.000357    1.80  0.000035  (-0.005712  0.001670 -0.000170)
 44:   3146.93   0.000617    3.12  0.000061  (-0.000388 -0.002486  0.007404)
 45:   3153.96   0.003699   18.69  0.000366  ( 0.014633 -0.007157 -0.010032)
 46:   3188.35   0.000516    2.61  0.000051  (-0.002803 -0.006460  0.000955)
 47:   3202.84   0.000009    0.04  0.000001  ( 0.000067  0.000022  0.000908)
 48:   3438.48   0.008712   44.03  0.000791  (-0.013268  0.024235  0.005223)
 49:   3528.55   0.025244  127.57  0.002233  ( 0.041161  0.010607  0.020636)
 50:   3545.17   0.026949  136.19  0.002372  ( 0.022898  0.013762 -0.040725)

--------------------------
THERMOCHEMISTRY AT 298.15K
--------------------------

Temperature         ... 298.15 K
Pressure            ... 1.00 atm
Total Mass          ... 74.15 AMU

Throughout the following assumptions are being made:
  (1) The electronic state is orbitally nondegenerate
  (2) There are no thermally accessible electronically excited states
  (3) Hindered rotations indicated by low frequency modes are not
      treated as such but are treated as vibrations and this may
      cause some error
  (4) All equations used are the standard statistical mechanics
      equations for an ideal gas
  (5) All vibrations are strictly harmonic

freq.      37.91  E(vib)   ...       0.54
freq.     149.53  E(vib)   ...       0.40
freq.     196.36  E(vib)   ...       0.36
freq.     264.95  E(vib)   ...       0.29
freq.     271.85  E(vib)   ...       0.29
freq.     384.98  E(vib)   ...       0.20
freq.     501.08  E(vib)   ...       0.14
freq.     730.44  E(vib)   ...       0.06
freq.     799.74  E(vib)   ...       0.05
freq.     846.55  E(vib)   ...       0.04
freq.     893.71  E(vib)   ...       0.03
freq.     916.14  E(vib)   ...       0.03
freq.     995.98  E(vib)   ...       0.02
freq.    1022.83  E(vib)   ...       0.02
freq.    1030.80  E(vib)   ...       0.02
freq.    1105.39  E(vib)   ...       0.02
freq.    1154.54  E(vib)   ...       0.01
freq.    1181.29  E(vib)   ...       0.01
freq.    1268.36  E(vib)   ...       0.01
freq.    1308.84  E(vib)   ...       0.01
freq.    1344.19  E(vib)   ...       0.01
freq.    1365.90  E(vib)   ...       0.01
freq.    1400.00  E(vib)   ...       0.00
freq.    1423.46  E(vib)   ...       0.00
freq.    1433.51  E(vib)   ...       0.00
freq.    1458.23  E(vib)   ...       0.00
freq.    1467.60  E(vib)   ...       0.00
freq.    1478.95  E(vib)   ...       0.00
freq.    1484.93  E(vib)   ...       0.00
freq.    1487.14  E(vib)   ...       0.00
freq.    1499.20  E(vib)   ...       0.00
freq.    1618.35  E(vib)   ...       0.00
freq.    1631.17  E(vib)   ...       0.00
freq.    3039.58  E(vib)   ...       0.00
freq.    3060.07  E(vib)   ...       0.00
freq.    3085.07  E(vib)   ...       0.00
freq.    3129.59  E(vib)   ...       0.00
freq.    3139.76  E(vib)   ...       0.00
freq.    3146.93  E(vib)   ...       0.00
freq.    3153.96  E(vib)   ...       0.00
freq.    3188.35  E(vib)   ...       0.00
freq.    3202.84  E(vib)   ...       0.00
freq.    3438.48  E(vib)   ...       0.00
freq.    3528.55  E(vib)   ...       0.00
freq.    3545.17  E(vib)   ...       0.00

------------
INNER ENERGY
------------

The inner energy is: U= E(el) + E(ZPE) + E(vib) + E(rot) + E(trans)
    E(el)   - is the total energy from the electronic structure calculation
              = E(kin-el) + E(nuc-el) + E(el-el) + E(nuc-nuc)
    E(ZPE)  - the the zero temperature vibrational energy from the frequency calculation
    E(vib)  - the the finite temperature correction to E(ZPE) due to population
              of excited vibrational states
    E(rot)  - is the rotational thermal energy
    E(trans)- is the translational thermal energy

Summary of contributions to the inner energy U:
Electronic energy                ...   -213.95904555 Eh
Zero point energy                ...      0.16587842 Eh     104.09 kcal/mol
Thermal vibrational correction   ...      0.00415930 Eh       2.61 kcal/mol
Thermal rotational correction    ...      0.00141627 Eh       0.89 kcal/mol
Thermal translational correction ...      0.00141627 Eh       0.89 kcal/mol
-----------------------------------------------------------------------
Total thermal energy                   -213.78617530 Eh

Summary of corrections to the electronic energy:
(perhaps to be used in another calculation)
Total thermal correction                  0.00699184 Eh       4.39 kcal/mol
Non-thermal (ZPE) correction              0.16587842 Eh     104.09 kcal/mol
-----------------------------------------------------------------------
Total correction                          0.17287026 Eh     108.48 kcal/mol

--------
ENTHALPY
--------

The enthalpy is H = U + kB*T
                kB is Boltzmann's constant
Total free energy                 ...   -213.78617530 Eh
Thermal Enthalpy correction       ...      0.00094421 Eh       0.59 kcal/mol
-----------------------------------------------------------------------
Total Enthalpy                    ...   -213.78523109 Eh

Note: Only C1 symmetry has been detected, increase convergence thresholds
      if your molecule has a higher symmetry. Symmetry factor of 1.0 is
      used for the rotational entropy correction.

Note: Rotational entropy computed according to Herzberg
Infrared and Raman Spectra, Chapter V,1, Van Nostrand Reinhold, 1945
Point Group:  C1, Symmetry Number:   1
Rotational constants in cm-1:     0.248796     0.098820     0.089126

Vibrational entropy computed according to the QRRHO of S. Grimme
Chem.Eur.J. 2012 18 9955

-------
ENTROPY
-------

The entropy contributions are T*S = T*(S(el)+S(vib)+S(rot)+S(trans))
     S(el)   - electronic entropy
     S(vib)  - vibrational entropy
     S(rot)  - rotational entropy
     S(trans)- translational entropy
The entropies will be listed as multiplied by the temperature to get
units of energy

Electronic entropy                ...      0.00000000 Eh      0.00 kcal/mol
Vibrational entropy               ...      0.00719771 Eh      4.52 kcal/mol
Rotational entropy                ...      0.01240155 Eh      7.78 kcal/mol
Translational entropy             ...      0.01844761 Eh     11.58 kcal/mol
-----------------------------------------------------------------------
Final entropy term                ...      0.03804687 Eh     23.87 kcal/mol

In case the symmetry of your molecule has not been determined correctly
or in case you have a reason to use a different symmetry number we print
out the resulting rotational entropy values for sn=1,12 :
 --------------------------------------------------------
|  sn= 1 | S(rot)=       0.01240155 Eh      7.78 kcal/mol|
|  sn= 2 | S(rot)=       0.01174710 Eh      7.37 kcal/mol|
|  sn= 3 | S(rot)=       0.01136427 Eh      7.13 kcal/mol|
|  sn= 4 | S(rot)=       0.01109264 Eh      6.96 kcal/mol|
|  sn= 5 | S(rot)=       0.01088195 Eh      6.83 kcal/mol|
|  sn= 6 | S(rot)=       0.01070981 Eh      6.72 kcal/mol|
|  sn= 7 | S(rot)=       0.01056426 Eh      6.63 kcal/mol|
|  sn= 8 | S(rot)=       0.01043818 Eh      6.55 kcal/mol|
|  sn= 9 | S(rot)=       0.01032698 Eh      6.48 kcal/mol|
|  sn=10 | S(rot)=       0.01022750 Eh      6.42 kcal/mol|
|  sn=11 | S(rot)=       0.01013751 Eh      6.36 kcal/mol|
|  sn=12 | S(rot)=       0.01005535 Eh      6.31 kcal/mol|
 --------------------------------------------------------

-------------------
GIBBS FREE ENERGY
-------------------

                             ****ORCA TERMINATED NORMALLY****
TOTAL RUN TIME: 0 days 0 hours 8 minutes 59 seconds 824 msec
