                         Program Version 5.0.4 -  RELEASE  -
|  1> # ORCA 5.0.4 - /users/bwb16179/postgrad/2024_06/pKa_Reviewer_Comments/CREST_Confs/butylamine/butylamine_prot_aq_3.inp # write input file
|  2> # Basic Mode
|  3> #
|  4> ! Opt Freq wB97X Def2-SVP D4 SlowConv TightSCF Defgrid2 Def2/J RIJCOSX
|  5>
|  6> %PAL NPROCS 4 END
|  7>
|  8> %maxcore 4500
|  9>
| 10> %geom
| 11> Maxiter 150
| 12> END
| 13>
| 14> * xyzfile 1 1 butylamine_prot_aq_3.xyz
| 15>
| 16>                          ****END OF INPUT****
 Total Charge           Charge          ....    1
 Multiplicity           Mult            ....    1
 Number of Electrons    NEL             ....   42
Dispersion correction           -0.001352853
FINAL SINGLE POINT ENERGY      -213.956475422673
Dispersion correction            ... Starting D4
Dispersion correction           -0.001352243
FINAL SINGLE POINT ENERGY      -213.958383441167
Dispersion correction            ... Starting D4
Dispersion correction           -0.001353841
FINAL SINGLE POINT ENERGY      -213.958851742420
Dispersion correction            ... Starting D4
FINAL SINGLE POINT ENERGY      -213.958981508722
FINAL SINGLE POINT ENERGY      -213.959007878811
Dispersion correction           -0.001359236
FINAL SINGLE POINT ENERGY      -213.959030303791
Dispersion correction            ... Starting D4
Dispersion correction           -0.001359908
FINAL SINGLE POINT ENERGY      -213.959037879882
Dispersion correction            ... Starting D4
                    ***********************HURRAY********************

CARTESIAN COORDINATES (ANGSTROEM)
---------------------------------
  C     -1.862701   -0.415717   -0.635545
  C     -1.141592   -0.137822    0.679796
  H     -2.703616   -1.106373   -0.483052
  H     -1.211643   -0.875631   -1.399437
  H     -2.270569    0.511140   -1.068188
  C     -0.031430    0.913542    0.584047
  H     -0.748692   -1.080382    1.110030
  H     -1.866538    0.213292    1.429603
  C      1.059082    0.602407   -0.427393
  H      0.422537    1.085632    1.575380
  H     -0.460108    1.882877    0.282171
  N      1.708634   -0.724866   -0.123149
  H      1.861088    1.353311   -0.418598
  H      0.669210    0.523813   -1.452192
  H      2.435839   -0.970498   -0.806068
  H      1.009866   -1.480576   -0.124258
  H      2.144824   -0.724161    0.808424

 Multiplicity           Mult            ....    1
 Number of Electrons    NEL             ....   42
 Basis Dimension        Dim             ....  130

ORBITAL ENERGIES
----------------

  NO   OCC          E(Eh)            E(eV)
   0   2.0000     -14.738978      -401.0680
   1   2.0000     -10.517492      -286.1955
   2   2.0000     -10.445693      -284.2418
   3   2.0000     -10.427433      -283.7449
   4   2.0000     -10.405483      -283.1476
   5   2.0000      -1.326974       -36.1088
   6   2.0000      -1.100566       -29.9479
   7   2.0000      -1.024682       -27.8830
   8   2.0000      -0.947739       -25.7893
   9   2.0000      -0.902841       -24.5676
  10   2.0000      -0.896155       -24.3856
  11   2.0000      -0.858989       -23.3743
  12   2.0000      -0.786812       -21.4102
  13   2.0000      -0.747181       -20.3318
  14   2.0000      -0.724312       -19.7095
  15   2.0000      -0.678606       -18.4658
  16   2.0000      -0.663383       -18.0516
  17   2.0000      -0.649028       -17.6610
  18   2.0000      -0.599378       -16.3099
  19   2.0000      -0.591825       -16.1044
  20   2.0000      -0.585580       -15.9345
  21   0.0000      -0.083921        -2.2836
  22   0.0000      -0.022526        -0.6130
  23   0.0000      -0.018389        -0.5004
  24   0.0000       0.005085         0.1384
  25   0.0000       0.028793         0.7835

MULLIKEN ATOMIC CHARGES
-----------------------
   0 C :   -0.065092
   1 C :   -0.119669
   2 H :    0.083027
   3 H :    0.012353
   4 H :    0.066931
   5 C :   -0.082944
   6 H :    0.020161
   7 H :    0.085431
   8 C :   -0.010138
   9 H :    0.069425
  10 H :    0.094388
  11 N :   -0.019060
  12 H :    0.112224
  13 H :    0.107466
  14 H :    0.221172
  15 H :    0.209529
  16 H :    0.214796
Sum of atomic charges:    1.0000000

LOEWDIN ATOMIC CHARGES
----------------------
   0 C :   -0.064109
   1 C :   -0.053384
   2 H :    0.050892
   3 H :    0.013862
   4 H :    0.042269
   5 C :   -0.047864
   6 H :    0.015732
   7 H :    0.054591
   8 C :    0.058839
   9 H :    0.041887
  10 H :    0.061226
  11 N :    0.289656
  12 H :    0.056643
  13 H :    0.051893
  14 H :    0.146049
  15 H :    0.137901
  16 H :    0.143917

  Mayer bond orders larger than 0.100000
B(  0-C ,  1-C ) :   1.0627 B(  0-C ,  2-H ) :   0.9684 B(  0-C ,  3-H ) :   0.9703
B(  0-C ,  4-H ) :   0.9749 B(  1-C ,  5-C ) :   1.0537 B(  1-C ,  6-H ) :   0.9540
B(  1-C ,  7-H ) :   0.9459 B(  5-C ,  8-C ) :   1.0579 B(  5-C ,  9-H ) :   0.9520
B(  5-C , 10-H ) :   0.9402 B(  8-C , 11-N ) :   0.8961 B(  8-C , 12-H ) :   0.9547
B(  8-C , 13-H ) :   0.9512 B( 11-N , 14-H ) :   0.9319 B( 11-N , 15-H ) :   0.9309
B( 11-N , 16-H ) :   0.9338

Dispersion correction           -0.001359832
FINAL SINGLE POINT ENERGY      -213.959039332655

DIPOLE MOMENT
-------------
                                X             Y             Z
Electronic contribution:      2.95922      -0.10834       0.37335
Nuclear contribution   :     -0.58318      -0.74169      -0.53399
                        -----------------------------------------
Total Dipole Moment    :      2.37604      -0.85003      -0.16065
                        -----------------------------------------
Magnitude (a.u.)       :      2.52862
Magnitude (Debye)      :      6.42725

Dispersion correction in the Hessian             ... Starting D4

VIBRATIONAL FREQUENCIES
-----------------------

Scaling factor for frequencies =  1.000000000  (already applied!)

   0:         0.00 cm**-1
   1:         0.00 cm**-1
   2:         0.00 cm**-1
   3:         0.00 cm**-1
   4:         0.00 cm**-1
   5:         0.00 cm**-1
   6:        65.29 cm**-1
   7:       167.45 cm**-1
   8:       201.29 cm**-1
   9:       269.01 cm**-1
  10:       272.42 cm**-1
  11:       391.35 cm**-1
  12:       505.99 cm**-1
  13:       736.89 cm**-1
  14:       802.70 cm**-1
  15:       849.01 cm**-1
  16:       896.83 cm**-1
  17:       916.95 cm**-1
  18:       996.59 cm**-1
  19:      1023.66 cm**-1
  20:      1032.06 cm**-1
  21:      1105.13 cm**-1
  22:      1155.24 cm**-1
  23:      1183.28 cm**-1
  24:      1269.92 cm**-1
  25:      1309.92 cm**-1
  26:      1346.73 cm**-1
  27:      1367.16 cm**-1
  28:      1400.68 cm**-1
  29:      1424.27 cm**-1
  30:      1434.85 cm**-1
  31:      1460.82 cm**-1
  32:      1471.07 cm**-1
  33:      1481.02 cm**-1
  34:      1485.74 cm**-1
  35:      1489.30 cm**-1
  36:      1501.34 cm**-1
  37:      1619.23 cm**-1
  38:      1630.64 cm**-1
  39:      3040.08 cm**-1
  40:      3059.94 cm**-1
  41:      3084.17 cm**-1
  42:      3129.03 cm**-1
  43:      3139.95 cm**-1
  44:      3147.92 cm**-1
  45:      3154.47 cm**-1
  46:      3188.44 cm**-1
  47:      3202.94 cm**-1
  48:      3439.10 cm**-1
  49:      3528.46 cm**-1
  50:      3546.50 cm**-1

IR SPECTRUM
-----------

 Mode   freq       eps      Int      T**2         TX        TY        TZ
       cm**-1   L/(mol*cm) km/mol    a.u.
----------------------------------------------------------------------------
  6:     65.29   0.002352   11.88  0.011240  ( 0.094764  0.019274  0.043455)
  7:    167.45   0.000119    0.60  0.000221  ( 0.009963  0.007778 -0.007849)
  8:    201.29   0.001374    6.94  0.002130  (-0.043495  0.001963  0.015296)
  9:    269.01   0.001212    6.13  0.001406  (-0.033992  0.005596  0.014810)
 10:    272.42   0.000696    3.52  0.000797  (-0.024796  0.009031  0.010025)
 11:    391.35   0.001099    5.56  0.000877  (-0.021054  0.010737  0.017832)
 12:    505.99   0.000516    2.61  0.000318  ( 0.008262 -0.012573 -0.009590)
 13:    736.89   0.001609    8.13  0.000681  (-0.025704  0.001123 -0.004409)
 14:    802.70   0.001373    6.94  0.000534  (-0.020407 -0.008242 -0.007023)
 15:    849.01   0.000312    1.58  0.000115  ( 0.001206 -0.008604 -0.006260)
 16:    896.83   0.001320    6.67  0.000459  (-0.014210 -0.010916 -0.011764)
 17:    916.95   0.002457   12.42  0.000836  ( 0.025041 -0.003658 -0.013992)
 18:    996.59   0.001326    6.70  0.000415  (-0.006023 -0.011322  0.015833)
 19:   1023.66   0.000938    4.74  0.000286  ( 0.004344  0.012873  0.010067)
 20:   1032.06   0.002599   13.14  0.000786  (-0.024520  0.010212  0.008967)
 21:   1105.13   0.000514    2.60  0.000145  ( 0.001223 -0.009796  0.006915)
 22:   1155.24   0.000217    1.10  0.000059  ( 0.005642 -0.001225 -0.005024)
 23:   1183.28   0.002072   10.47  0.000547  ( 0.011562  0.006498 -0.019252)
 24:   1269.92   0.000515    2.60  0.000127  (-0.003277  0.000059  0.010763)
 25:   1309.92   0.000047    0.24  0.000011  ( 0.001004  0.002673  0.001727)
 26:   1346.73   0.003776   19.08  0.000875  (-0.022070 -0.015952 -0.011548)
 27:   1367.16   0.000771    3.90  0.000176  (-0.013021 -0.000758  0.002418)
 28:   1400.68   0.000219    1.11  0.000049  ( 0.000668 -0.001548  0.006786)
 29:   1424.27   0.001428    7.22  0.000313  (-0.015275 -0.001828 -0.008729)
 30:   1434.85   0.000509    2.57  0.000111  (-0.001764 -0.005145 -0.009005)
 31:   1460.82   0.001929    9.75  0.000412  ( 0.004963 -0.016066 -0.011369)
 32:   1471.07   0.004761   24.06  0.001010  ( 0.001586 -0.031581  0.003196)
 33:   1481.02   0.001280    6.47  0.000270  (-0.001279 -0.011143  0.011996)
 34:   1485.74   0.003752   18.96  0.000788  (-0.005850 -0.013429  0.023949)
 35:   1489.30   0.005006   25.30  0.001049  ( 0.025521 -0.011288 -0.016435)
 36:   1501.34   0.028195  142.49  0.005861  (-0.043484  0.062322 -0.009252)
 37:   1619.23   0.007936   40.11  0.001529  ( 0.018289  0.019830  0.028316)
 38:   1630.64   0.006049   30.57  0.001158  (-0.029472 -0.005423  0.016113)
 39:   3040.08   0.007099   35.88  0.000729  ( 0.009813 -0.019901  0.015374)
 40:   3059.94   0.003766   19.03  0.000384  (-0.007939  0.007637  0.016210)
 41:   3084.17   0.001477    7.46  0.000149  (-0.007915 -0.004064 -0.008383)
 42:   3129.03   0.000105    0.53  0.000010  ( 0.001615  0.001232 -0.002521)
 43:   3139.95   0.000345    1.74  0.000034  (-0.005574  0.001431 -0.001075)
 44:   3147.92   0.000615    3.11  0.000061  (-0.001245  0.000711  0.007678)
 45:   3154.47   0.003768   19.04  0.000373  (-0.014913  0.010938  0.005540)
 46:   3188.44   0.000514    2.60  0.000050  ( 0.003092  0.005570 -0.003118)
 47:   3202.94   0.000011    0.06  0.000001  (-0.000351 -0.000514 -0.000850)
 48:   3439.10   0.008644   43.68  0.000784  ( 0.010817 -0.025216  0.005608)
 49:   3528.46   0.025554  129.14  0.002260  (-0.041641 -0.015499 -0.016907)
 50:   3546.50   0.026927  136.08  0.002369  (-0.025066  0.004420  0.041491)

--------------------------
THERMOCHEMISTRY AT 298.15K
--------------------------

Temperature         ... 298.15 K
Pressure            ... 1.00 atm
Total Mass          ... 74.15 AMU

Throughout the following assumptions are being made:
  (1) The electronic state is orbitally nondegenerate
  (2) There are no thermally accessible electronically excited states
  (3) Hindered rotations indicated by low frequency modes are not
      treated as such but are treated as vibrations and this may
      cause some error
  (4) All equations used are the standard statistical mechanics
      equations for an ideal gas
  (5) All vibrations are strictly harmonic

freq.      65.29  E(vib)   ...       0.50
freq.     167.45  E(vib)   ...       0.39
freq.     201.29  E(vib)   ...       0.35
freq.     269.01  E(vib)   ...       0.29
freq.     272.42  E(vib)   ...       0.29
freq.     391.35  E(vib)   ...       0.20
freq.     505.99  E(vib)   ...       0.14
freq.     736.89  E(vib)   ...       0.06
freq.     802.70  E(vib)   ...       0.05
freq.     849.01  E(vib)   ...       0.04
freq.     896.83  E(vib)   ...       0.03
freq.     916.95  E(vib)   ...       0.03
freq.     996.59  E(vib)   ...       0.02
freq.    1023.66  E(vib)   ...       0.02
freq.    1032.06  E(vib)   ...       0.02
freq.    1105.13  E(vib)   ...       0.02
freq.    1155.24  E(vib)   ...       0.01
freq.    1183.28  E(vib)   ...       0.01
freq.    1269.92  E(vib)   ...       0.01
freq.    1309.92  E(vib)   ...       0.01
freq.    1346.73  E(vib)   ...       0.01
freq.    1367.16  E(vib)   ...       0.01
freq.    1400.68  E(vib)   ...       0.00
freq.    1424.27  E(vib)   ...       0.00
freq.    1434.85  E(vib)   ...       0.00
freq.    1460.82  E(vib)   ...       0.00
freq.    1471.07  E(vib)   ...       0.00
freq.    1481.02  E(vib)   ...       0.00
freq.    1485.74  E(vib)   ...       0.00
freq.    1489.30  E(vib)   ...       0.00
freq.    1501.34  E(vib)   ...       0.00
freq.    1619.23  E(vib)   ...       0.00
freq.    1630.64  E(vib)   ...       0.00
freq.    3040.08  E(vib)   ...       0.00
freq.    3059.94  E(vib)   ...       0.00
freq.    3084.17  E(vib)   ...       0.00
freq.    3129.03  E(vib)   ...       0.00
freq.    3139.95  E(vib)   ...       0.00
freq.    3147.92  E(vib)   ...       0.00
freq.    3154.47  E(vib)   ...       0.00
freq.    3188.44  E(vib)   ...       0.00
freq.    3202.94  E(vib)   ...       0.00
freq.    3439.10  E(vib)   ...       0.00
freq.    3528.46  E(vib)   ...       0.00
freq.    3546.50  E(vib)   ...       0.00

------------
INNER ENERGY
------------

The inner energy is: U= E(el) + E(ZPE) + E(vib) + E(rot) + E(trans)
    E(el)   - is the total energy from the electronic structure calculation
              = E(kin-el) + E(nuc-el) + E(el-el) + E(nuc-nuc)
    E(ZPE)  - the the zero temperature vibrational energy from the frequency calculation
    E(vib)  - the the finite temperature correction to E(ZPE) due to population
              of excited vibrational states
    E(rot)  - is the rotational thermal energy
    E(trans)- is the translational thermal energy

Summary of contributions to the inner energy U:
Electronic energy                ...   -213.95903933 Eh
Zero point energy                ...      0.16613502 Eh     104.25 kcal/mol
Thermal vibrational correction   ...      0.00404172 Eh       2.54 kcal/mol
Thermal rotational correction    ...      0.00141627 Eh       0.89 kcal/mol
Thermal translational correction ...      0.00141627 Eh       0.89 kcal/mol
-----------------------------------------------------------------------
Total thermal energy                   -213.78603006 Eh

Summary of corrections to the electronic energy:
(perhaps to be used in another calculation)
Total thermal correction                  0.00687426 Eh       4.31 kcal/mol
Non-thermal (ZPE) correction              0.16613502 Eh     104.25 kcal/mol
-----------------------------------------------------------------------
Total correction                          0.17300928 Eh     108.56 kcal/mol

--------
ENTHALPY
--------

The enthalpy is H = U + kB*T
                kB is Boltzmann's constant
Total free energy                 ...   -213.78603006 Eh
Thermal Enthalpy correction       ...      0.00094421 Eh       0.59 kcal/mol
-----------------------------------------------------------------------
Total Enthalpy                    ...   -213.78508585 Eh

Note: Only C1 symmetry has been detected, increase convergence thresholds
      if your molecule has a higher symmetry. Symmetry factor of 1.0 is
      used for the rotational entropy correction.

Note: Rotational entropy computed according to Herzberg
Infrared and Raman Spectra, Chapter V,1, Van Nostrand Reinhold, 1945
Point Group:  C1, Symmetry Number:   1
Rotational constants in cm-1:     0.248740     0.098863     0.089153

Vibrational entropy computed according to the QRRHO of S. Grimme
Chem.Eur.J. 2012 18 9955

-------
ENTROPY
-------

The entropy contributions are T*S = T*(S(el)+S(vib)+S(rot)+S(trans))
     S(el)   - electronic entropy
     S(vib)  - vibrational entropy
     S(rot)  - rotational entropy
     S(trans)- translational entropy
The entropies will be listed as multiplied by the temperature to get
units of energy

Electronic entropy                ...      0.00000000 Eh      0.00 kcal/mol
Vibrational entropy               ...      0.00684885 Eh      4.30 kcal/mol
Rotational entropy                ...      0.01240131 Eh      7.78 kcal/mol
Translational entropy             ...      0.01844761 Eh     11.58 kcal/mol
-----------------------------------------------------------------------
Final entropy term                ...      0.03769777 Eh     23.66 kcal/mol

In case the symmetry of your molecule has not been determined correctly
or in case you have a reason to use a different symmetry number we print
out the resulting rotational entropy values for sn=1,12 :
 --------------------------------------------------------
|  sn= 1 | S(rot)=       0.01240131 Eh      7.78 kcal/mol|
|  sn= 2 | S(rot)=       0.01174685 Eh      7.37 kcal/mol|
|  sn= 3 | S(rot)=       0.01136402 Eh      7.13 kcal/mol|
|  sn= 4 | S(rot)=       0.01109240 Eh      6.96 kcal/mol|
|  sn= 5 | S(rot)=       0.01088171 Eh      6.83 kcal/mol|
|  sn= 6 | S(rot)=       0.01070957 Eh      6.72 kcal/mol|
|  sn= 7 | S(rot)=       0.01056402 Eh      6.63 kcal/mol|
|  sn= 8 | S(rot)=       0.01043794 Eh      6.55 kcal/mol|
|  sn= 9 | S(rot)=       0.01032673 Eh      6.48 kcal/mol|
|  sn=10 | S(rot)=       0.01022725 Eh      6.42 kcal/mol|
|  sn=11 | S(rot)=       0.01013726 Eh      6.36 kcal/mol|
|  sn=12 | S(rot)=       0.01005511 Eh      6.31 kcal/mol|
 --------------------------------------------------------

-------------------
GIBBS FREE ENERGY
-------------------

                             ****ORCA TERMINATED NORMALLY****
TOTAL RUN TIME: 0 days 0 hours 4 minutes 45 seconds 540 msec
