                         Program Version 5.0.4 -  RELEASE  -
|  1> # ORCA 5.0.4 - /users/bwb16179/postgrad/2024_06/pKa_Reviewer_Comments/CREST_Confs/butylamine/butylamine_prot_aq_5.inp # write input file
|  2> # Basic Mode
|  3> #
|  4> ! Opt Freq wB97X Def2-SVP D4 SlowConv TightSCF Defgrid2 Def2/J RIJCOSX
|  5>
|  6> %PAL NPROCS 4 END
|  7>
|  8> %maxcore 4500
|  9>
| 10> %geom
| 11> Maxiter 150
| 12> END
| 13>
| 14> * xyzfile 1 1 butylamine_prot_aq_5.xyz
| 15>
| 16>                          ****END OF INPUT****
 Total Charge           Charge          ....    1
 Multiplicity           Mult            ....    1
 Number of Electrons    NEL             ....   42
Dispersion correction           -0.001357325
FINAL SINGLE POINT ENERGY      -213.954159871146
Dispersion correction            ... Starting D4
Dispersion correction           -0.001359673
FINAL SINGLE POINT ENERGY      -213.956322202452
Dispersion correction            ... Starting D4
Dispersion correction           -0.001359017
FINAL SINGLE POINT ENERGY      -213.956888972760
Dispersion correction            ... Starting D4
FINAL SINGLE POINT ENERGY      -213.957106299978
FINAL SINGLE POINT ENERGY      -213.957236743421
FINAL SINGLE POINT ENERGY      -213.957484165709
FINAL SINGLE POINT ENERGY      -213.957782494240
FINAL SINGLE POINT ENERGY      -213.958150763593
FINAL SINGLE POINT ENERGY      -213.958401964900
FINAL SINGLE POINT ENERGY      -213.958083863893
FINAL SINGLE POINT ENERGY      -213.958709133352
FINAL SINGLE POINT ENERGY      -213.958754342417
FINAL SINGLE POINT ENERGY      -213.958796501089
FINAL SINGLE POINT ENERGY      -213.958805070474
Dispersion correction           -0.001367900
FINAL SINGLE POINT ENERGY      -213.958814178380
Dispersion correction            ... Starting D4
Dispersion correction           -0.001367924
FINAL SINGLE POINT ENERGY      -213.958817016654
Dispersion correction            ... Starting D4
                    ***********************HURRAY********************

CARTESIAN COORDINATES (ANGSTROEM)
---------------------------------
  C     -1.602403   -0.930791    0.082971
  C     -1.324893    0.455487   -0.498385
  H     -1.532688   -0.944192    1.185182
  H     -0.945086   -1.715585   -0.339061
  H     -2.620772   -1.261287   -0.165155
  C     -0.036777    1.136099   -0.025202
  H     -2.161895    1.122824   -0.242723
  H     -1.318045    0.396979   -1.599633
  C      1.253257    0.385833   -0.320389
  H     -0.087557    1.362915    1.056156
  H      0.053233    2.115853   -0.519187
  N      1.455252   -0.760812    0.639459
  H      2.139356    1.027884   -0.219269
  H      1.256287   -0.049482   -1.331132
  H      1.557410   -0.423865    1.605241
  H      2.289471   -1.317125    0.415901
  H      0.636781   -1.387661    0.623892

 Multiplicity           Mult            ....    1
 Number of Electrons    NEL             ....   42
 Basis Dimension        Dim             ....  130

ORBITAL ENERGIES
----------------

  NO   OCC          E(Eh)            E(eV)
   0   2.0000     -14.733258      -400.9123
   1   2.0000     -10.517095      -286.1847
   2   2.0000     -10.445924      -284.2480
   3   2.0000     -10.422524      -283.6113
   4   2.0000     -10.422438      -283.6090
   5   2.0000      -1.322906       -35.9981
   6   2.0000      -1.098716       -29.8976
   7   2.0000      -1.029975       -28.0270
   8   2.0000      -0.948882       -25.8204
   9   2.0000      -0.903703       -24.5910
  10   2.0000      -0.897625       -24.4256
  11   2.0000      -0.852263       -23.1913
  12   2.0000      -0.795578       -21.6488
  13   2.0000      -0.738808       -20.1040
  14   2.0000      -0.711062       -19.3490
  15   2.0000      -0.696507       -18.9529
  16   2.0000      -0.675534       -18.3822
  17   2.0000      -0.653283       -17.7767
  18   2.0000      -0.605104       -16.4657
  19   2.0000      -0.592625       -16.1262
  20   2.0000      -0.587936       -15.9985
  21   0.0000      -0.075494        -2.0543
  22   0.0000      -0.019493        -0.5304
  23   0.0000      -0.009648        -0.2625
  24   0.0000       0.000397         0.0108
  25   0.0000       0.028680         0.7804

MULLIKEN ATOMIC CHARGES
-----------------------
   0 C :   -0.127224
   1 C :   -0.057164
   2 H :    0.046666
   3 H :    0.034069
   4 H :    0.096893
   5 C :   -0.105429
   6 H :    0.081175
   7 H :    0.062791
   8 C :   -0.001002
   9 H :    0.055083
  10 H :    0.096987
  11 N :   -0.010883
  12 H :    0.109942
  13 H :    0.104175
  14 H :    0.212912
  15 H :    0.219161
  16 H :    0.181848
Sum of atomic charges:    1.0000000

LOEWDIN ATOMIC CHARGES
----------------------
   0 C :   -0.074883
   1 C :   -0.041157
   2 H :    0.027911
   3 H :    0.017892
   4 H :    0.060355
   5 C :   -0.049990
   6 H :    0.050945
   7 H :    0.040351
   8 C :    0.060532
   9 H :    0.036288
  10 H :    0.063210
  11 N :    0.286611
  12 H :    0.055951
  13 H :    0.053947
  14 H :    0.141335
  15 H :    0.144900
  16 H :    0.125805

  Mayer bond orders larger than 0.100000
B(  0-C ,  1-C ) :   1.0683 B(  0-C ,  2-H ) :   0.9691 B(  0-C ,  3-H ) :   0.9487
B(  0-C ,  4-H ) :   0.9581 B(  1-C ,  5-C ) :   1.0624 B(  1-C ,  6-H ) :   0.9525
B(  1-C ,  7-H ) :   0.9548 B(  5-C ,  8-C ) :   1.0488 B(  5-C ,  9-H ) :   0.9538
B(  5-C , 10-H ) :   0.9402 B(  8-C , 11-N ) :   0.9032 B(  8-C , 12-H ) :   0.9564
B(  8-C , 13-H ) :   0.9535 B( 11-N , 14-H ) :   0.9334 B( 11-N , 15-H ) :   0.9307
B( 11-N , 16-H ) :   0.9220

Dispersion correction           -0.001367857
FINAL SINGLE POINT ENERGY      -213.958817436715

DIPOLE MOMENT
-------------
                                X             Y             Z
Electronic contribution:      2.51593       0.25201       0.36835
Nuclear contribution   :     -0.54278      -1.13715       0.40055
                        -----------------------------------------
Total Dipole Moment    :      1.97315      -0.88515       0.76890
                        -----------------------------------------
Magnitude (a.u.)       :      2.29522
Magnitude (Debye)      :      5.83398

Dispersion correction in the Hessian             ... Starting D4

VIBRATIONAL FREQUENCIES
-----------------------

Scaling factor for frequencies =  1.000000000  (already applied!)

   0:         0.00 cm**-1
   1:         0.00 cm**-1
   2:         0.00 cm**-1
   3:         0.00 cm**-1
   4:         0.00 cm**-1
   5:         0.00 cm**-1
   6:        84.57 cm**-1
   7:       167.49 cm**-1
   8:       237.58 cm**-1
   9:       309.13 cm**-1
  10:       328.73 cm**-1
  11:       360.82 cm**-1
  12:       479.50 cm**-1
  13:       766.80 cm**-1
  14:       797.14 cm**-1
  15:       834.96 cm**-1
  16:       893.01 cm**-1
  17:       916.05 cm**-1
  18:       995.96 cm**-1
  19:      1020.63 cm**-1
  20:      1048.50 cm**-1
  21:      1113.25 cm**-1
  22:      1149.77 cm**-1
  23:      1190.16 cm**-1
  24:      1280.55 cm**-1
  25:      1308.99 cm**-1
  26:      1348.56 cm**-1
  27:      1368.67 cm**-1
  28:      1398.94 cm**-1
  29:      1418.21 cm**-1
  30:      1431.72 cm**-1
  31:      1455.79 cm**-1
  32:      1470.52 cm**-1
  33:      1479.59 cm**-1
  34:      1480.15 cm**-1
  35:      1492.45 cm**-1
  36:      1511.59 cm**-1
  37:      1621.44 cm**-1
  38:      1635.10 cm**-1
  39:      3027.19 cm**-1
  40:      3066.93 cm**-1
  41:      3091.95 cm**-1
  42:      3112.99 cm**-1
  43:      3118.87 cm**-1
  44:      3149.71 cm**-1
  45:      3157.13 cm**-1
  46:      3178.08 cm**-1
  47:      3193.85 cm**-1
  48:      3418.62 cm**-1
  49:      3511.48 cm**-1
  50:      3547.27 cm**-1

IR SPECTRUM
-----------

 Mode   freq       eps      Int      T**2         TX        TY        TZ
       cm**-1   L/(mol*cm) km/mol    a.u.
----------------------------------------------------------------------------
  6:     84.57   0.000560    2.83  0.002066  (-0.013905 -0.016224 -0.040119)
  7:    167.49   0.003887   19.64  0.007243  (-0.083639 -0.009155 -0.012786)
  8:    237.58   0.000890    4.50  0.001170  (-0.032107 -0.003331 -0.011295)
  9:    309.13   0.000323    1.63  0.000327  (-0.011716  0.013309 -0.003483)
 10:    328.73   0.001964    9.93  0.001865  (-0.041503  0.006030 -0.010286)
 11:    360.82   0.000673    3.40  0.000582  (-0.015072  0.018685  0.002406)
 12:    479.50   0.000652    3.29  0.000424  (-0.018589  0.007628  0.004529)
 13:    766.80   0.000346    1.75  0.000141  ( 0.007764  0.000732 -0.008947)
 14:    797.14   0.001452    7.34  0.000568  ( 0.019740  0.011579  0.006689)
 15:    834.96   0.001672    8.45  0.000625  (-0.022189 -0.003769 -0.010874)
 16:    893.01   0.002310   11.67  0.000807  ( 0.010925  0.020956  0.015771)
 17:    916.05   0.002841   14.36  0.000968  ( 0.025608 -0.016434  0.006478)
 18:    995.96   0.001365    6.90  0.000428  (-0.015707 -0.007066  0.011452)
 19:   1020.63   0.001322    6.68  0.000404  ( 0.012179  0.015149  0.005150)
 20:   1048.50   0.003118   15.76  0.000928  (-0.028831  0.009757 -0.001272)
 21:   1113.25   0.000783    3.96  0.000219  (-0.004212 -0.005862  0.012938)
 22:   1149.77   0.001611    8.14  0.000437  (-0.018098 -0.001949  0.010288)
 23:   1190.16   0.000366    1.85  0.000096  (-0.002911  0.001142  0.009288)
 24:   1280.55   0.001219    6.16  0.000297  (-0.015489  0.004580  0.006008)
 25:   1308.99   0.000827    4.18  0.000197  ( 0.013798 -0.000240  0.002600)
 26:   1348.56   0.003473   17.55  0.000804  (-0.018230 -0.018623 -0.011163)
 27:   1368.67   0.000169    0.85  0.000038  (-0.004471 -0.002231 -0.003673)
 28:   1398.94   0.000269    1.36  0.000060  ( 0.006626  0.003818  0.001245)
 29:   1418.21   0.000902    4.56  0.000198  (-0.008250 -0.010712  0.003961)
 30:   1431.72   0.000096    0.49  0.000021  ( 0.004259 -0.001382  0.000964)
 31:   1455.79   0.002374   11.99  0.000509  (-0.001440 -0.021573 -0.006428)
 32:   1470.52   0.001433    7.24  0.000304  (-0.013012  0.011566 -0.000962)
 33:   1479.59   0.007503   37.92  0.001583  (-0.019665 -0.007094  0.033846)
 34:   1480.15   0.002003   10.12  0.000422  ( 0.001204 -0.010509  0.017621)
 35:   1492.45   0.018037   91.15  0.003771  ( 0.028851 -0.033894  0.042312)
 36:   1511.59   0.012210   61.71  0.002521  (-0.018960  0.044677 -0.012855)
 37:   1621.44   0.006639   33.55  0.001278  ( 0.015404  0.020915  0.024556)
 38:   1635.10   0.004472   22.60  0.000853  ( 0.027262 -0.008674 -0.005921)
 39:   3027.19   0.007645   38.63  0.000788  (-0.020588  0.017840 -0.006776)
 40:   3066.93   0.002026   10.24  0.000206  ( 0.004324  0.004272  0.013007)
 41:   3091.95   0.001772    8.96  0.000179  ( 0.006644 -0.005095  0.010429)
 42:   3112.99   0.003589   18.14  0.000360  ( 0.010845 -0.005113 -0.014696)
 43:   3118.87   0.000227    1.15  0.000023  ( 0.004266 -0.000386 -0.002082)
 44:   3149.71   0.000092    0.47  0.000009  (-0.000204 -0.001487  0.002621)
 45:   3157.13   0.001634    8.26  0.000162  (-0.006368  0.004977  0.009810)
 46:   3178.08   0.000310    1.57  0.000030  ( 0.003899 -0.000729  0.003838)
 47:   3193.85   0.000033    0.17  0.000003  ( 0.001553  0.000260  0.000885)
 48:   3418.62   0.014241   71.97  0.001300  (-0.023428 -0.025784  0.009287)
 49:   3511.48   0.040011  202.20  0.003556  ( 0.053912  0.008978  0.023846)
 50:   3547.27   0.024855  125.60  0.002187  (-0.027740  0.024177  0.028852)

--------------------------
THERMOCHEMISTRY AT 298.15K
--------------------------

Temperature         ... 298.15 K
Pressure            ... 1.00 atm
Total Mass          ... 74.15 AMU

Throughout the following assumptions are being made:
  (1) The electronic state is orbitally nondegenerate
  (2) There are no thermally accessible electronically excited states
  (3) Hindered rotations indicated by low frequency modes are not
      treated as such but are treated as vibrations and this may
      cause some error
  (4) All equations used are the standard statistical mechanics
      equations for an ideal gas
  (5) All vibrations are strictly harmonic

freq.      84.57  E(vib)   ...       0.48
freq.     167.49  E(vib)   ...       0.38
freq.     237.58  E(vib)   ...       0.32
freq.     309.13  E(vib)   ...       0.26
freq.     328.73  E(vib)   ...       0.24
freq.     360.82  E(vib)   ...       0.22
freq.     479.50  E(vib)   ...       0.15
freq.     766.80  E(vib)   ...       0.06
freq.     797.14  E(vib)   ...       0.05
freq.     834.96  E(vib)   ...       0.04
freq.     893.01  E(vib)   ...       0.03
freq.     916.05  E(vib)   ...       0.03
freq.     995.96  E(vib)   ...       0.02
freq.    1020.63  E(vib)   ...       0.02
freq.    1048.50  E(vib)   ...       0.02
freq.    1113.25  E(vib)   ...       0.01
freq.    1149.77  E(vib)   ...       0.01
freq.    1190.16  E(vib)   ...       0.01
freq.    1280.55  E(vib)   ...       0.01
freq.    1308.99  E(vib)   ...       0.01
freq.    1348.56  E(vib)   ...       0.01
freq.    1368.67  E(vib)   ...       0.01
freq.    1398.94  E(vib)   ...       0.00
freq.    1418.21  E(vib)   ...       0.00
freq.    1431.72  E(vib)   ...       0.00
freq.    1455.79  E(vib)   ...       0.00
freq.    1470.52  E(vib)   ...       0.00
freq.    1479.59  E(vib)   ...       0.00
freq.    1480.15  E(vib)   ...       0.00
freq.    1492.45  E(vib)   ...       0.00
freq.    1511.59  E(vib)   ...       0.00
freq.    1621.44  E(vib)   ...       0.00
freq.    1635.10  E(vib)   ...       0.00
freq.    3027.19  E(vib)   ...       0.00
freq.    3066.93  E(vib)   ...       0.00
freq.    3091.95  E(vib)   ...       0.00
freq.    3112.99  E(vib)   ...       0.00
freq.    3118.87  E(vib)   ...       0.00
freq.    3149.71  E(vib)   ...       0.00
freq.    3157.13  E(vib)   ...       0.00
freq.    3178.08  E(vib)   ...       0.00
freq.    3193.85  E(vib)   ...       0.00
freq.    3418.62  E(vib)   ...       0.00
freq.    3511.48  E(vib)   ...       0.00
freq.    3547.27  E(vib)   ...       0.00

------------
INNER ENERGY
------------

The inner energy is: U= E(el) + E(ZPE) + E(vib) + E(rot) + E(trans)
    E(el)   - is the total energy from the electronic structure calculation
              = E(kin-el) + E(nuc-el) + E(el-el) + E(nuc-nuc)
    E(ZPE)  - the the zero temperature vibrational energy from the frequency calculation
    E(vib)  - the the finite temperature correction to E(ZPE) due to population
              of excited vibrational states
    E(rot)  - is the rotational thermal energy
    E(trans)- is the translational thermal energy

Summary of contributions to the inner energy U:
Electronic energy                ...   -213.95881744 Eh
Zero point energy                ...      0.16623884 Eh     104.32 kcal/mol
Thermal vibrational correction   ...      0.00387147 Eh       2.43 kcal/mol
Thermal rotational correction    ...      0.00141627 Eh       0.89 kcal/mol
Thermal translational correction ...      0.00141627 Eh       0.89 kcal/mol
-----------------------------------------------------------------------
Total thermal energy                   -213.78587459 Eh

Summary of corrections to the electronic energy:
(perhaps to be used in another calculation)
Total thermal correction                  0.00670401 Eh       4.21 kcal/mol
Non-thermal (ZPE) correction              0.16623884 Eh     104.32 kcal/mol
-----------------------------------------------------------------------
Total correction                          0.17294285 Eh     108.52 kcal/mol

--------
ENTHALPY
--------

The enthalpy is H = U + kB*T
                kB is Boltzmann's constant
Total free energy                 ...   -213.78587459 Eh
Thermal Enthalpy correction       ...      0.00094421 Eh       0.59 kcal/mol
-----------------------------------------------------------------------
Total Enthalpy                    ...   -213.78493038 Eh

Note: Only C1 symmetry has been detected, increase convergence thresholds
      if your molecule has a higher symmetry. Symmetry factor of 1.0 is
      used for the rotational entropy correction.

Note: Rotational entropy computed according to Herzberg
Infrared and Raman Spectra, Chapter V,1, Van Nostrand Reinhold, 1945
Point Group:  C1, Symmetry Number:   1
Rotational constants in cm-1:     0.226727     0.114958     0.085919

Vibrational entropy computed according to the QRRHO of S. Grimme
Chem.Eur.J. 2012 18 9955

-------
ENTROPY
-------

The entropy contributions are T*S = T*(S(el)+S(vib)+S(rot)+S(trans))
     S(el)   - electronic entropy
     S(vib)  - vibrational entropy
     S(rot)  - rotational entropy
     S(trans)- translational entropy
The entropies will be listed as multiplied by the temperature to get
units of energy

Electronic entropy                ...      0.00000000 Eh      0.00 kcal/mol
Vibrational entropy               ...      0.00645326 Eh      4.05 kcal/mol
Rotational entropy                ...      0.01239129 Eh      7.78 kcal/mol
Translational entropy             ...      0.01844761 Eh     11.58 kcal/mol
-----------------------------------------------------------------------
Final entropy term                ...      0.03729216 Eh     23.40 kcal/mol

In case the symmetry of your molecule has not been determined correctly
or in case you have a reason to use a different symmetry number we print
out the resulting rotational entropy values for sn=1,12 :
 --------------------------------------------------------
|  sn= 1 | S(rot)=       0.01239129 Eh      7.78 kcal/mol|
|  sn= 2 | S(rot)=       0.01173684 Eh      7.36 kcal/mol|
|  sn= 3 | S(rot)=       0.01135400 Eh      7.12 kcal/mol|
|  sn= 4 | S(rot)=       0.01108238 Eh      6.95 kcal/mol|
|  sn= 5 | S(rot)=       0.01087169 Eh      6.82 kcal/mol|
|  sn= 6 | S(rot)=       0.01069955 Eh      6.71 kcal/mol|
|  sn= 7 | S(rot)=       0.01055400 Eh      6.62 kcal/mol|
|  sn= 8 | S(rot)=       0.01042792 Eh      6.54 kcal/mol|
|  sn= 9 | S(rot)=       0.01031672 Eh      6.47 kcal/mol|
|  sn=10 | S(rot)=       0.01021724 Eh      6.41 kcal/mol|
|  sn=11 | S(rot)=       0.01012725 Eh      6.35 kcal/mol|
|  sn=12 | S(rot)=       0.01004509 Eh      6.30 kcal/mol|
 --------------------------------------------------------

-------------------
GIBBS FREE ENERGY
-------------------

                             ****ORCA TERMINATED NORMALLY****
TOTAL RUN TIME: 0 days 0 hours 7 minutes 26 seconds 500 msec
