                         Program Version 5.0.4 -  RELEASE  -
|  1> # ORCA 5.0.4 - /users/bwb16179/postgrad/2024_06/pKa_Reviewer_Comments/CREST_Confs/butylamine/butylamine_prot_aq_1.inp # write input file
|  2> # Basic Mode
|  3> #
|  4> ! Opt Freq wB97X Def2-SVP D4 SlowConv TightSCF Defgrid2 Def2/J RIJCOSX
|  5>
|  6> %PAL NPROCS 4 END
|  7>
|  8> %maxcore 4500
|  9>
| 10> %geom
| 11> Maxiter 150
| 12> END
| 13>
| 14> * xyzfile 1 1 butylamine_prot_aq_1.xyz
| 15>
| 16>                          ****END OF INPUT****
 Total Charge           Charge          ....    1
 Multiplicity           Mult            ....    1
 Number of Electrons    NEL             ....   42
Dispersion correction           -0.001258156
FINAL SINGLE POINT ENERGY      -213.956862481663
Dispersion correction            ... Starting D4
Dispersion correction           -0.001254883
FINAL SINGLE POINT ENERGY      -213.958473793762
Dispersion correction            ... Starting D4
Dispersion correction           -0.001253842
FINAL SINGLE POINT ENERGY      -213.958766010286
Dispersion correction            ... Starting D4
Dispersion correction           -0.001253670
FINAL SINGLE POINT ENERGY      -213.958830721074
Dispersion correction            ... Starting D4
Dispersion correction           -0.001253754
FINAL SINGLE POINT ENERGY      -213.958832947698
Dispersion correction            ... Starting D4
                    ***********************HURRAY********************

CARTESIAN COORDINATES (ANGSTROEM)
---------------------------------
  C     -2.607632   -0.083317    0.224425
  C     -1.316652    0.147250   -0.550329
  H     -3.483266    0.093046   -0.415215
  H     -2.684424    0.595620    1.087865
  H     -2.672071   -1.116375    0.599702
  C     -0.073512   -0.095389    0.306695
  H     -1.292235    1.179323   -0.939912
  H     -1.284595   -0.515683   -1.431906
  C      1.202105    0.139164   -0.479926
  H     -0.089284   -1.131001    0.691975
  H     -0.098796    0.574246    1.185670
  N      2.417230   -0.082090    0.384704
  H      1.272068    1.168856   -0.859552
  H      1.295936   -0.549150   -1.332448
  H      2.437300   -1.039321    0.760933
  H      2.419208    0.553891    1.193197
  H      3.295922    0.066685   -0.127479

 Multiplicity           Mult            ....    1
 Number of Electrons    NEL             ....   42
 Basis Dimension        Dim             ....  130

ORBITAL ENERGIES
----------------

  NO   OCC          E(Eh)            E(eV)
   0   2.0000     -14.742316      -401.1588
   1   2.0000     -10.519072      -286.2385
   2   2.0000     -10.444953      -284.2216
   3   2.0000     -10.410921      -283.2956
   4   2.0000     -10.380143      -282.4580
   5   2.0000      -1.329661       -36.1819
   6   2.0000      -1.098122       -29.8814
   7   2.0000      -1.015183       -27.6245
   8   2.0000      -0.936984       -25.4966
   9   2.0000      -0.905599       -24.6426
  10   2.0000      -0.894784       -24.3483
  11   2.0000      -0.841115       -22.8879
  12   2.0000      -0.794205       -21.6114
  13   2.0000      -0.756185       -20.5768
  14   2.0000      -0.696811       -18.9612
  15   2.0000      -0.685089       -18.6422
  16   2.0000      -0.649974       -17.6867
  17   2.0000      -0.622285       -16.9332
  18   2.0000      -0.593274       -16.1438
  19   2.0000      -0.575967       -15.6728
  20   2.0000      -0.565804       -15.3963
  21   0.0000      -0.083122        -2.2619
  22   0.0000      -0.021938        -0.5970
  23   0.0000      -0.019196        -0.5223
  24   0.0000      -0.002250        -0.0612
  25   0.0000       0.035998         0.9796

MULLIKEN ATOMIC CHARGES
-----------------------
   0 C :   -0.033717
   1 C :   -0.093361
   2 H :    0.070062
   3 H :    0.046438
   4 H :    0.046413
   5 C :   -0.114880
   6 H :    0.050804
   7 H :    0.051279
   8 C :    0.016311
   9 H :    0.054294
  10 H :    0.053317
  11 N :   -0.008691
  12 H :    0.104664
  13 H :    0.105316
  14 H :    0.215542
  15 H :    0.215482
  16 H :    0.220728
Sum of atomic charges:    1.0000000

LOEWDIN ATOMIC CHARGES
----------------------
   0 C :   -0.054427
   1 C :   -0.036945
   2 H :    0.045581
   3 H :    0.033391
   4 H :    0.033398
   5 C :   -0.053180
   6 H :    0.034172
   7 H :    0.034340
   8 C :    0.059539
   9 H :    0.035910
  10 H :    0.035512
  11 N :    0.289451
  12 H :    0.054443
  13 H :    0.054646
  14 H :    0.143924
  15 H :    0.143847
  16 H :    0.146399

  Mayer bond orders larger than 0.100000
B(  0-C ,  1-C ) :   1.0876 B(  0-C ,  2-H ) :   0.9701 B(  0-C ,  3-H ) :   0.9752
B(  0-C ,  4-H ) :   0.9753 B(  1-C ,  5-C ) :   1.0545 B(  1-C ,  6-H ) :   0.9560
B(  1-C ,  7-H ) :   0.9560 B(  5-C ,  8-C ) :   1.0528 B(  5-C ,  9-H ) :   0.9478
B(  5-C , 10-H ) :   0.9488 B(  8-C , 11-N ) :   0.9096 B(  8-C , 12-H ) :   0.9517
B(  8-C , 13-H ) :   0.9515 B( 11-N , 14-H ) :   0.9337 B( 11-N , 15-H ) :   0.9338
B( 11-N , 16-H ) :   0.9315

Dispersion correction           -0.001253794
FINAL SINGLE POINT ENERGY      -213.958832843464

DIPOLE MOMENT
-------------
                                X             Y             Z
Electronic contribution:      4.25711       0.01746       0.06649
Nuclear contribution   :     -0.72326      -0.11640       0.41835
                        -----------------------------------------
Total Dipole Moment    :      3.53385      -0.09894       0.48485
                        -----------------------------------------
Magnitude (a.u.)       :      3.56833
Magnitude (Debye)      :      9.06997

Dispersion correction in the Hessian             ... Starting D4

VIBRATIONAL FREQUENCIES
-----------------------

Scaling factor for frequencies =  1.000000000  (already applied!)

   0:         0.00 cm**-1
   1:         0.00 cm**-1
   2:         0.00 cm**-1
   3:         0.00 cm**-1
   4:         0.00 cm**-1
   5:         0.00 cm**-1
   6:       100.74 cm**-1
   7:       111.11 cm**-1
   8:       175.97 cm**-1
   9:       234.93 cm**-1
  10:       241.41 cm**-1
  11:       397.00 cm**-1
  12:       408.35 cm**-1
  13:       749.77 cm**-1
  14:       793.94 cm**-1
  15:       897.85 cm**-1
  16:       902.77 cm**-1
  17:       935.42 cm**-1
  18:       997.41 cm**-1
  19:      1014.43 cm**-1
  20:      1077.80 cm**-1
  21:      1101.14 cm**-1
  22:      1184.72 cm**-1
  23:      1208.36 cm**-1
  24:      1288.23 cm**-1
  25:      1303.51 cm**-1
  26:      1333.27 cm**-1
  27:      1349.48 cm**-1
  28:      1392.07 cm**-1
  29:      1421.44 cm**-1
  30:      1433.49 cm**-1
  31:      1472.02 cm**-1
  32:      1477.24 cm**-1
  33:      1478.70 cm**-1
  34:      1484.56 cm**-1
  35:      1496.12 cm**-1
  36:      1504.13 cm**-1
  37:      1626.09 cm**-1
  38:      1633.38 cm**-1
  39:      3054.80 cm**-1
  40:      3074.07 cm**-1
  41:      3074.89 cm**-1
  42:      3110.36 cm**-1
  43:      3120.93 cm**-1
  44:      3131.20 cm**-1
  45:      3170.52 cm**-1
  46:      3189.98 cm**-1
  47:      3195.43 cm**-1
  48:      3440.56 cm**-1
  49:      3532.86 cm**-1
  50:      3541.96 cm**-1

IR SPECTRUM
-----------

 Mode   freq       eps      Int      T**2         TX        TY        TZ
       cm**-1   L/(mol*cm) km/mol    a.u.
----------------------------------------------------------------------------
  6:    100.74   0.000480    2.43  0.001487  (-0.003841  0.035473  0.014635)
  7:    111.11   0.000531    2.68  0.001490  (-0.001407  0.036999  0.010925)
  8:    175.97   0.001299    6.56  0.002303  ( 0.029727  0.014032 -0.034962)
  9:    234.93   0.000022    0.11  0.000029  ( 0.002385 -0.002441 -0.004217)
 10:    241.41   0.000005    0.03  0.000006  (-0.002003  0.000764  0.001343)
 11:    397.00   0.000612    3.09  0.000481  ( 0.021582 -0.000777  0.003852)
 12:    408.35   0.001481    7.48  0.001132  ( 0.033527  0.001080 -0.002513)
 13:    749.77   0.001351    6.83  0.000562  ( 0.000414 -0.022775 -0.006601)
 14:    793.94   0.000274    1.38  0.000108  (-0.000853  0.009902  0.002991)
 15:    897.85   0.001971    9.96  0.000685  ( 0.001114 -0.025161 -0.007128)
 16:    902.77   0.002317   11.71  0.000801  ( 0.023416  0.004991 -0.015090)
 17:    935.42   0.001798    9.09  0.000600  (-0.024309 -0.000120 -0.002983)
 18:    997.41   0.000609    3.08  0.000190  (-0.000310  0.013535  0.002667)
 19:   1014.43   0.000940    4.75  0.000289  (-0.005815 -0.003985  0.015476)
 20:   1077.80   0.002112   10.67  0.000611  ( 0.023472  0.002560 -0.007341)
 21:   1101.14   0.001649    8.33  0.000467  ( 0.020957 -0.001009  0.005209)
 22:   1184.72   0.001868    9.44  0.000492  ( 0.007948  0.006125 -0.019780)
 23:   1208.36   0.000338    1.71  0.000087  (-0.000732  0.008853  0.002904)
 24:   1288.23   0.000414    2.09  0.000100  (-0.000205 -0.009842 -0.001829)
 25:   1303.51   0.000365    1.84  0.000087  (-0.006925 -0.000049  0.006279)
 26:   1333.27   0.000739    3.73  0.000173  ( 0.000243  0.012580  0.003813)
 27:   1349.48   0.000763    3.86  0.000176  (-0.001174  0.012738  0.003582)
 28:   1392.07   0.000356    1.80  0.000080  ( 0.002971  0.002915 -0.007910)
 29:   1421.44   0.000376    1.90  0.000083  ( 0.002938 -0.002159  0.008322)
 30:   1433.49   0.003153   15.93  0.000686  (-0.025807  0.001328 -0.004312)
 31:   1472.02   0.000970    4.90  0.000206  ( 0.009943 -0.009919  0.002882)
 32:   1477.24   0.001342    6.78  0.000284  ( 0.002577  0.016605 -0.001074)
 33:   1478.70   0.001711    8.65  0.000361  ( 0.003437  0.012211  0.014150)
 34:   1484.56   0.000649    3.28  0.000136  (-0.000286 -0.007762  0.008722)
 35:   1496.12   0.003095   15.64  0.000646  ( 0.010335  0.005905 -0.022447)
 36:   1504.13   0.029666  149.92  0.006155  (-0.065991  0.009939 -0.041246)
 37:   1626.09   0.009870   49.88  0.001894  (-0.000313  0.042148  0.010843)
 38:   1633.38   0.006692   33.82  0.001278  (-0.023060 -0.006440  0.026555)
 39:   3054.80   0.001948    9.85  0.000199  (-0.006332  0.002924 -0.012263)
 40:   3074.07   0.003476   17.57  0.000353  (-0.001803 -0.004951  0.018032)
 41:   3074.89   0.002639   13.34  0.000268  (-0.010402 -0.003345  0.012185)
 42:   3110.36   0.000401    2.03  0.000040  ( 0.000110 -0.006155 -0.001538)
 43:   3120.93   0.000286    1.45  0.000029  ( 0.001976  0.001241 -0.004817)
 44:   3131.20   0.002569   12.98  0.000256  (-0.000067  0.015426  0.004256)
 45:   3170.52   0.003327   16.81  0.000327  (-0.000123 -0.017332 -0.005200)
 46:   3189.98   0.001070    5.41  0.000105  ( 0.005238 -0.002818  0.008324)
 47:   3195.43   0.000044    0.22  0.000004  ( 0.000060  0.001980  0.000615)
 48:   3440.56   0.012182   61.56  0.001105  ( 0.028353 -0.003770  0.016935)
 49:   3532.86   0.022980  116.13  0.002030  (-0.003251  0.042621  0.014240)
 50:   3541.96   0.025934  131.06  0.002285  ( 0.031118  0.013183 -0.033806)

--------------------------
THERMOCHEMISTRY AT 298.15K
--------------------------

Temperature         ... 298.15 K
Pressure            ... 1.00 atm
Total Mass          ... 74.15 AMU

Throughout the following assumptions are being made:
  (1) The electronic state is orbitally nondegenerate
  (2) There are no thermally accessible electronically excited states
  (3) Hindered rotations indicated by low frequency modes are not
      treated as such but are treated as vibrations and this may
      cause some error
  (4) All equations used are the standard statistical mechanics
      equations for an ideal gas
  (5) All vibrations are strictly harmonic

freq.     100.74  E(vib)   ...       0.46
freq.     111.11  E(vib)   ...       0.45
freq.     175.97  E(vib)   ...       0.38
freq.     234.93  E(vib)   ...       0.32
freq.     241.41  E(vib)   ...       0.31
freq.     397.00  E(vib)   ...       0.20
freq.     408.35  E(vib)   ...       0.19
freq.     749.77  E(vib)   ...       0.06
freq.     793.94  E(vib)   ...       0.05
freq.     897.85  E(vib)   ...       0.03
freq.     902.77  E(vib)   ...       0.03
freq.     935.42  E(vib)   ...       0.03
freq.     997.41  E(vib)   ...       0.02
freq.    1014.43  E(vib)   ...       0.02
freq.    1077.80  E(vib)   ...       0.02
freq.    1101.14  E(vib)   ...       0.02
freq.    1184.72  E(vib)   ...       0.01
freq.    1208.36  E(vib)   ...       0.01
freq.    1288.23  E(vib)   ...       0.01
freq.    1303.51  E(vib)   ...       0.01
freq.    1333.27  E(vib)   ...       0.01
freq.    1349.48  E(vib)   ...       0.01
freq.    1392.07  E(vib)   ...       0.00
freq.    1421.44  E(vib)   ...       0.00
freq.    1433.49  E(vib)   ...       0.00
freq.    1472.02  E(vib)   ...       0.00
freq.    1477.24  E(vib)   ...       0.00
freq.    1478.70  E(vib)   ...       0.00
freq.    1484.56  E(vib)   ...       0.00
freq.    1496.12  E(vib)   ...       0.00
freq.    1504.13  E(vib)   ...       0.00
freq.    1626.09  E(vib)   ...       0.00
freq.    1633.38  E(vib)   ...       0.00
freq.    3054.80  E(vib)   ...       0.00
freq.    3074.07  E(vib)   ...       0.00
freq.    3074.89  E(vib)   ...       0.00
freq.    3110.36  E(vib)   ...       0.00
freq.    3120.93  E(vib)   ...       0.00
freq.    3131.20  E(vib)   ...       0.00
freq.    3170.52  E(vib)   ...       0.00
freq.    3189.98  E(vib)   ...       0.00
freq.    3195.43  E(vib)   ...       0.00
freq.    3440.56  E(vib)   ...       0.00
freq.    3532.86  E(vib)   ...       0.00
freq.    3541.96  E(vib)   ...       0.00

------------
INNER ENERGY
------------

The inner energy is: U= E(el) + E(ZPE) + E(vib) + E(rot) + E(trans)
    E(el)   - is the total energy from the electronic structure calculation
              = E(kin-el) + E(nuc-el) + E(el-el) + E(nuc-nuc)
    E(ZPE)  - the the zero temperature vibrational energy from the frequency calculation
    E(vib)  - the the finite temperature correction to E(ZPE) due to population
              of excited vibrational states
    E(rot)  - is the rotational thermal energy
    E(trans)- is the translational thermal energy

Summary of contributions to the inner energy U:
Electronic energy                ...   -213.95883284 Eh
Zero point energy                ...      0.16599737 Eh     104.16 kcal/mol
Thermal vibrational correction   ...      0.00425390 Eh       2.67 kcal/mol
Thermal rotational correction    ...      0.00141627 Eh       0.89 kcal/mol
Thermal translational correction ...      0.00141627 Eh       0.89 kcal/mol
-----------------------------------------------------------------------
Total thermal energy                   -213.78574904 Eh

Summary of corrections to the electronic energy:
(perhaps to be used in another calculation)
Total thermal correction                  0.00708644 Eh       4.45 kcal/mol
Non-thermal (ZPE) correction              0.16599737 Eh     104.16 kcal/mol
-----------------------------------------------------------------------
Total correction                          0.17308381 Eh     108.61 kcal/mol

--------
ENTHALPY
--------

The enthalpy is H = U + kB*T
                kB is Boltzmann's constant
Total free energy                 ...   -213.78574904 Eh
Thermal Enthalpy correction       ...      0.00094421 Eh       0.59 kcal/mol
-----------------------------------------------------------------------
Total Enthalpy                    ...   -213.78480483 Eh

Note: Only C1 symmetry has been detected, increase convergence thresholds
      if your molecule has a higher symmetry. Symmetry factor of 1.0 is
      used for the rotational entropy correction.

Note: Rotational entropy computed according to Herzberg
Infrared and Raman Spectra, Chapter V,1, Van Nostrand Reinhold, 1945
Point Group:  C1, Symmetry Number:   1
Rotational constants in cm-1:     0.565373     0.063367     0.060124

Vibrational entropy computed according to the QRRHO of S. Grimme
Chem.Eur.J. 2012 18 9955

-------
ENTROPY
-------

The entropy contributions are T*S = T*(S(el)+S(vib)+S(rot)+S(trans))
     S(el)   - electronic entropy
     S(vib)  - vibrational entropy
     S(rot)  - rotational entropy
     S(trans)- translational entropy
The entropies will be listed as multiplied by the temperature to get
units of energy

Electronic entropy                ...      0.00000000 Eh      0.00 kcal/mol
Vibrational entropy               ...      0.00742231 Eh      4.66 kcal/mol
Rotational entropy                ...      0.01240965 Eh      7.79 kcal/mol
Translational entropy             ...      0.01844761 Eh     11.58 kcal/mol
-----------------------------------------------------------------------
Final entropy term                ...      0.03827956 Eh     24.02 kcal/mol

In case the symmetry of your molecule has not been determined correctly
or in case you have a reason to use a different symmetry number we print
out the resulting rotational entropy values for sn=1,12 :
 --------------------------------------------------------
|  sn= 1 | S(rot)=       0.01240965 Eh      7.79 kcal/mol|
|  sn= 2 | S(rot)=       0.01175519 Eh      7.38 kcal/mol|
|  sn= 3 | S(rot)=       0.01137236 Eh      7.14 kcal/mol|
|  sn= 4 | S(rot)=       0.01110074 Eh      6.97 kcal/mol|
|  sn= 5 | S(rot)=       0.01089005 Eh      6.83 kcal/mol|
|  sn= 6 | S(rot)=       0.01071790 Eh      6.73 kcal/mol|
|  sn= 7 | S(rot)=       0.01057236 Eh      6.63 kcal/mol|
|  sn= 8 | S(rot)=       0.01044628 Eh      6.56 kcal/mol|
|  sn= 9 | S(rot)=       0.01033507 Eh      6.49 kcal/mol|
|  sn=10 | S(rot)=       0.01023559 Eh      6.42 kcal/mol|
|  sn=11 | S(rot)=       0.01014560 Eh      6.37 kcal/mol|
|  sn=12 | S(rot)=       0.01006345 Eh      6.31 kcal/mol|
 --------------------------------------------------------

-------------------
GIBBS FREE ENERGY
-------------------

                             ****ORCA TERMINATED NORMALLY****
TOTAL RUN TIME: 0 days 0 hours 3 minutes 35 seconds 514 msec
