                         Program Version 5.0.4 -  RELEASE  -
|  1> # ORCA 5.0.4 - /users/bwb16179/postgrad/2024_06/pKa_Reviewer_Comments/CREST_Confs/butylamine/butylamine_prot_aq_4.inp # write input file
|  2> # Basic Mode
|  3> #
|  4> ! Opt Freq wB97X Def2-SVP D4 SlowConv TightSCF Defgrid2 Def2/J RIJCOSX
|  5>
|  6> %PAL NPROCS 4 END
|  7>
|  8> %maxcore 4500
|  9>
| 10> %geom
| 11> Maxiter 150
| 12> END
| 13>
| 14> * xyzfile 1 1 butylamine_prot_aq_4.xyz
| 15>
| 16>                          ****END OF INPUT****
 Total Charge           Charge          ....    1
 Multiplicity           Mult            ....    1
 Number of Electrons    NEL             ....   42
Dispersion correction           -0.001364994
FINAL SINGLE POINT ENERGY      -213.955965654229
Dispersion correction            ... Starting D4
Dispersion correction           -0.001368250
FINAL SINGLE POINT ENERGY      -213.958114115600
Dispersion correction            ... Starting D4
Dispersion correction           -0.001367317
FINAL SINGLE POINT ENERGY      -213.958630983674
Dispersion correction            ... Starting D4
FINAL SINGLE POINT ENERGY      -213.958790486949
FINAL SINGLE POINT ENERGY      -213.958819381809
Dispersion correction           -0.001367619
FINAL SINGLE POINT ENERGY      -213.958834988428
Dispersion correction            ... Starting D4
Dispersion correction           -0.001367551
FINAL SINGLE POINT ENERGY      -213.958839742006
Dispersion correction            ... Starting D4
                    ***********************HURRAY********************

CARTESIAN COORDINATES (ANGSTROEM)
---------------------------------
  C     -1.590991   -0.924346    0.210070
  C     -1.370049    0.563246   -0.060346
  H     -1.039886   -1.287642    1.099063
  H     -1.337069   -1.550926   -0.663351
  H     -2.646727   -1.127876    0.437882
  C      0.004027    0.947620   -0.616929
  H     -1.558195    1.136218    0.862977
  H     -2.124867    0.909285   -0.782697
  C      1.196279    0.586452    0.256636
  H      0.040891    2.038877   -0.757599
  H      0.150157    0.522952   -1.627682
  N      1.527559   -0.882530    0.158551
  H      1.005617    0.792420    1.320751
  H      2.106527    1.125482   -0.040888
  H      0.701804   -1.451150    0.399069
  H      2.296553   -1.153428    0.783660
  H      1.800670   -1.139553   -0.798556

 Multiplicity           Mult            ....    1
 Number of Electrons    NEL             ....   42
 Basis Dimension        Dim             ....  130

ORBITAL ENERGIES
----------------

  NO   OCC          E(Eh)            E(eV)
   0   2.0000     -14.733483      -400.9185
   1   2.0000     -10.517172      -286.1868
   2   2.0000     -10.445908      -284.2476
   3   2.0000     -10.422332      -283.6061
   4   2.0000     -10.422127      -283.6005
   5   2.0000      -1.322995       -36.0005
   6   2.0000      -1.098701       -29.8972
   7   2.0000      -1.029835       -28.0232
   8   2.0000      -0.948903       -25.8210
   9   2.0000      -0.903672       -24.5902
  10   2.0000      -0.897705       -24.4278
  11   2.0000      -0.852143       -23.1880
  12   2.0000      -0.795684       -21.6517
  13   2.0000      -0.738886       -20.1061
  14   2.0000      -0.711004       -19.3474
  15   2.0000      -0.696384       -18.9496
  16   2.0000      -0.675321       -18.3764
  17   2.0000      -0.653187       -17.7741
  18   2.0000      -0.604980       -16.4624
  19   2.0000      -0.592389       -16.1197
  20   2.0000      -0.587813       -15.9952
  21   0.0000      -0.075646        -2.0584
  22   0.0000      -0.019535        -0.5316
  23   0.0000      -0.010171        -0.2768
  24   0.0000       0.000334         0.0091
  25   0.0000       0.028779         0.7831

MULLIKEN ATOMIC CHARGES
-----------------------
   0 C :   -0.127371
   1 C :   -0.056321
   2 H :    0.033319
   3 H :    0.046857
   4 H :    0.096851
   5 C :   -0.106085
   6 H :    0.062717
   7 H :    0.080847
   8 C :   -0.000691
   9 H :    0.097016
  10 H :    0.054928
  11 N :   -0.011056
  12 H :    0.104246
  13 H :    0.109924
  14 H :    0.182661
  15 H :    0.219272
  16 H :    0.212887
Sum of atomic charges:    1.0000000

LOEWDIN ATOMIC CHARGES
----------------------
   0 C :   -0.074821
   1 C :   -0.041114
   2 H :    0.017527
   3 H :    0.028050
   4 H :    0.060269
   5 C :   -0.050049
   6 H :    0.040308
   7 H :    0.050884
   8 C :    0.060518
   9 H :    0.063205
  10 H :    0.036249
  11 N :    0.286633
  12 H :    0.053992
  13 H :    0.055981
  14 H :    0.126068
  15 H :    0.144980
  16 H :    0.141318

  Mayer bond orders larger than 0.100000
B(  0-C ,  1-C ) :   1.0684 B(  0-C ,  2-H ) :   0.9490 B(  0-C ,  3-H ) :   0.9695
B(  0-C ,  4-H ) :   0.9583 B(  1-C ,  5-C ) :   1.0626 B(  1-C ,  6-H ) :   0.9548
B(  1-C ,  7-H ) :   0.9524 B(  5-C ,  8-C ) :   1.0485 B(  5-C ,  9-H ) :   0.9403
B(  5-C , 10-H ) :   0.9538 B(  8-C , 11-N ) :   0.9032 B(  8-C , 12-H ) :   0.9534
B(  8-C , 13-H ) :   0.9564 B( 11-N , 14-H ) :   0.9222 B( 11-N , 15-H ) :   0.9307
B( 11-N , 16-H ) :   0.9334

Dispersion correction           -0.001367524
FINAL SINGLE POINT ENERGY      -213.958840293906

DIPOLE MOMENT
-------------
                                X             Y             Z
Electronic contribution:      2.55701       0.17513      -0.03290
Nuclear contribution   :     -0.50390      -1.19776       0.23033
                        -----------------------------------------
Total Dipole Moment    :      2.05311      -1.02263       0.19743
                        -----------------------------------------
Magnitude (a.u.)       :      2.30218
Magnitude (Debye)      :      5.85167

Dispersion correction in the Hessian             ... Starting D4

VIBRATIONAL FREQUENCIES
-----------------------

Scaling factor for frequencies =  1.000000000  (already applied!)

   0:         0.00 cm**-1
   1:         0.00 cm**-1
   2:         0.00 cm**-1
   3:         0.00 cm**-1
   4:         0.00 cm**-1
   5:         0.00 cm**-1
   6:        97.73 cm**-1
   7:       170.82 cm**-1
   8:       224.55 cm**-1
   9:       312.85 cm**-1
  10:       330.64 cm**-1
  11:       363.16 cm**-1
  12:       483.41 cm**-1
  13:       765.80 cm**-1
  14:       798.75 cm**-1
  15:       839.66 cm**-1
  16:       894.90 cm**-1
  17:       915.90 cm**-1
  18:       995.81 cm**-1
  19:      1022.48 cm**-1
  20:      1049.01 cm**-1
  21:      1113.95 cm**-1
  22:      1150.61 cm**-1
  23:      1191.41 cm**-1
  24:      1281.74 cm**-1
  25:      1309.43 cm**-1
  26:      1349.47 cm**-1
  27:      1369.27 cm**-1
  28:      1399.85 cm**-1
  29:      1419.90 cm**-1
  30:      1433.05 cm**-1
  31:      1456.71 cm**-1
  32:      1470.54 cm**-1
  33:      1481.29 cm**-1
  34:      1483.97 cm**-1
  35:      1493.52 cm**-1
  36:      1512.12 cm**-1
  37:      1619.52 cm**-1
  38:      1634.42 cm**-1
  39:      3027.79 cm**-1
  40:      3067.11 cm**-1
  41:      3092.66 cm**-1
  42:      3113.85 cm**-1
  43:      3118.76 cm**-1
  44:      3149.00 cm**-1
  45:      3157.28 cm**-1
  46:      3177.49 cm**-1
  47:      3194.02 cm**-1
  48:      3420.03 cm**-1
  49:      3511.65 cm**-1
  50:      3546.63 cm**-1

IR SPECTRUM
-----------

 Mode   freq       eps      Int      T**2         TX        TY        TZ
       cm**-1   L/(mol*cm) km/mol    a.u.
----------------------------------------------------------------------------
  6:     97.73   0.000474    2.40  0.001514  ( 0.011209 -0.007668 -0.036457)
  7:    170.82   0.004093   20.69  0.007477  ( 0.086172  0.005965 -0.004035)
  8:    224.55   0.000882    4.46  0.001225  (-0.034446  0.001121  0.006134)
  9:    312.85   0.000286    1.44  0.000285  (-0.009291  0.012134 -0.007180)
 10:    330.64   0.002030   10.26  0.001916  (-0.042490  0.009679 -0.004056)
 11:    363.16   0.000568    2.87  0.000488  ( 0.011823 -0.011794  0.014477)
 12:    483.41   0.000644    3.26  0.000416  (-0.017176  0.002443 -0.010725)
 13:    765.80   0.000321    1.62  0.000131  (-0.004895 -0.006161 -0.008308)
 14:    798.75   0.001194    6.03  0.000466  ( 0.018879  0.007477 -0.007360)
 15:    839.66   0.001777    8.98  0.000660  ( 0.024692 -0.000401 -0.007112)
 16:    894.90   0.002399   12.12  0.000837  ( 0.014090  0.009605 -0.023363)
 17:    915.90   0.002909   14.70  0.000991  ( 0.026475 -0.015065  0.007953)
 18:    995.81   0.001428    7.21  0.000447  ( 0.014467  0.013701  0.007096)
 19:   1022.48   0.001245    6.29  0.000380  (-0.012144 -0.010678  0.010879)
 20:   1049.01   0.003099   15.66  0.000922  (-0.028515  0.005950 -0.008564)
 21:   1113.95   0.000834    4.21  0.000234  (-0.002454 -0.012711 -0.008125)
 22:   1150.61   0.001595    8.06  0.000433  (-0.015879 -0.009002 -0.009975)
 23:   1191.41   0.000351    1.77  0.000092  ( 0.001209  0.004084  0.008586)
 24:   1281.74   0.001201    6.07  0.000292  (-0.014199  0.000047 -0.009524)
 25:   1309.43   0.000771    3.90  0.000184  ( 0.013540 -0.000535  0.000311)
 26:   1349.47   0.003533   17.85  0.000817  (-0.020211 -0.011555  0.016581)
 27:   1369.27   0.000168    0.85  0.000038  (-0.005182 -0.000786  0.003280)
 28:   1399.85   0.000274    1.38  0.000061  (-0.006848 -0.002946  0.002326)
 29:   1419.90   0.000892    4.51  0.000196  (-0.007655 -0.011579  0.001836)
 30:   1433.05   0.000122    0.61  0.000026  ( 0.004701 -0.001116  0.001773)
 31:   1456.71   0.002276   11.50  0.000488  (-0.003822 -0.013351  0.017170)
 32:   1470.54   0.001645    8.31  0.000349  ( 0.011981 -0.013089  0.005857)
 33:   1481.29   0.002750   13.90  0.000579  (-0.013327 -0.010944 -0.016793)
 34:   1483.97   0.008348   42.19  0.001755  (-0.001932 -0.034839 -0.023194)
 35:   1493.52   0.016680   84.30  0.003485  ( 0.035816 -0.046195 -0.008276)
 36:   1512.12   0.012208   61.69  0.002519  (-0.020932  0.041859 -0.018140)
 37:   1619.52   0.006691   33.81  0.001289  ( 0.020379  0.004910 -0.029151)
 38:   1634.42   0.004192   21.19  0.000800  (-0.023786  0.000457 -0.015313)
 39:   3027.79   0.007548   38.14  0.000778  ( 0.020515 -0.017079  0.008086)
 40:   3067.11   0.002048   10.35  0.000208  ( 0.006770 -0.003453 -0.012271)
 41:   3092.66   0.001731    8.75  0.000175  ( 0.007982 -0.009587 -0.004367)
 42:   3113.85   0.003551   17.95  0.000356  (-0.008064 -0.004624 -0.016416)
 43:   3118.76   0.000227    1.15  0.000023  (-0.003733 -0.001159 -0.002736)
 44:   3149.00   0.000117    0.59  0.000012  (-0.000206  0.003028  0.001541)
 45:   3157.28   0.001655    8.36  0.000164  ( 0.004392  0.001817  0.011875)
 46:   3177.49   0.000313    1.58  0.000031  (-0.004465  0.002539  0.002089)
 47:   3194.02   0.000034    0.17  0.000003  (-0.001692  0.000303  0.000635)
 48:   3420.03   0.013481   68.13  0.001230  (-0.020555 -0.028273  0.002864)
 49:   3511.65   0.039547  199.85  0.003514  (-0.056823  0.001564  0.016823)
 50:   3546.63   0.025071  126.70  0.002206  (-0.022722  0.001824 -0.041066)

--------------------------
THERMOCHEMISTRY AT 298.15K
--------------------------

Temperature         ... 298.15 K
Pressure            ... 1.00 atm
Total Mass          ... 74.15 AMU

Throughout the following assumptions are being made:
  (1) The electronic state is orbitally nondegenerate
  (2) There are no thermally accessible electronically excited states
  (3) Hindered rotations indicated by low frequency modes are not
      treated as such but are treated as vibrations and this may
      cause some error
  (4) All equations used are the standard statistical mechanics
      equations for an ideal gas
  (5) All vibrations are strictly harmonic

freq.      97.73  E(vib)   ...       0.46
freq.     170.82  E(vib)   ...       0.38
freq.     224.55  E(vib)   ...       0.33
freq.     312.85  E(vib)   ...       0.25
freq.     330.64  E(vib)   ...       0.24
freq.     363.16  E(vib)   ...       0.22
freq.     483.41  E(vib)   ...       0.15
freq.     765.80  E(vib)   ...       0.06
freq.     798.75  E(vib)   ...       0.05
freq.     839.66  E(vib)   ...       0.04
freq.     894.90  E(vib)   ...       0.03
freq.     915.90  E(vib)   ...       0.03
freq.     995.81  E(vib)   ...       0.02
freq.    1022.48  E(vib)   ...       0.02
freq.    1049.01  E(vib)   ...       0.02
freq.    1113.95  E(vib)   ...       0.01
freq.    1150.61  E(vib)   ...       0.01
freq.    1191.41  E(vib)   ...       0.01
freq.    1281.74  E(vib)   ...       0.01
freq.    1309.43  E(vib)   ...       0.01
freq.    1349.47  E(vib)   ...       0.01
freq.    1369.27  E(vib)   ...       0.01
freq.    1399.85  E(vib)   ...       0.00
freq.    1419.90  E(vib)   ...       0.00
freq.    1433.05  E(vib)   ...       0.00
freq.    1456.71  E(vib)   ...       0.00
freq.    1470.54  E(vib)   ...       0.00
freq.    1481.29  E(vib)   ...       0.00
freq.    1483.97  E(vib)   ...       0.00
freq.    1493.52  E(vib)   ...       0.00
freq.    1512.12  E(vib)   ...       0.00
freq.    1619.52  E(vib)   ...       0.00
freq.    1634.42  E(vib)   ...       0.00
freq.    3027.79  E(vib)   ...       0.00
freq.    3067.11  E(vib)   ...       0.00
freq.    3092.66  E(vib)   ...       0.00
freq.    3113.85  E(vib)   ...       0.00
freq.    3118.76  E(vib)   ...       0.00
freq.    3149.00  E(vib)   ...       0.00
freq.    3157.28  E(vib)   ...       0.00
freq.    3177.49  E(vib)   ...       0.00
freq.    3194.02  E(vib)   ...       0.00
freq.    3420.03  E(vib)   ...       0.00
freq.    3511.65  E(vib)   ...       0.00
freq.    3546.63  E(vib)   ...       0.00

------------
INNER ENERGY
------------

The inner energy is: U= E(el) + E(ZPE) + E(vib) + E(rot) + E(trans)
    E(el)   - is the total energy from the electronic structure calculation
              = E(kin-el) + E(nuc-el) + E(el-el) + E(nuc-nuc)
    E(ZPE)  - the the zero temperature vibrational energy from the frequency calculation
    E(vib)  - the the finite temperature correction to E(ZPE) due to population
              of excited vibrational states
    E(rot)  - is the rotational thermal energy
    E(trans)- is the translational thermal energy

Summary of contributions to the inner energy U:
Electronic energy                ...   -213.95884029 Eh
Zero point energy                ...      0.16633471 Eh     104.38 kcal/mol
Thermal vibrational correction   ...      0.00384447 Eh       2.41 kcal/mol
Thermal rotational correction    ...      0.00141627 Eh       0.89 kcal/mol
Thermal translational correction ...      0.00141627 Eh       0.89 kcal/mol
-----------------------------------------------------------------------
Total thermal energy                   -213.78582857 Eh

Summary of corrections to the electronic energy:
(perhaps to be used in another calculation)
Total thermal correction                  0.00667701 Eh       4.19 kcal/mol
Non-thermal (ZPE) correction              0.16633471 Eh     104.38 kcal/mol
-----------------------------------------------------------------------
Total correction                          0.17301172 Eh     108.57 kcal/mol

--------
ENTHALPY
--------

The enthalpy is H = U + kB*T
                kB is Boltzmann's constant
Total free energy                 ...   -213.78582857 Eh
Thermal Enthalpy correction       ...      0.00094421 Eh       0.59 kcal/mol
-----------------------------------------------------------------------
Total Enthalpy                    ...   -213.78488437 Eh

Note: Only C1 symmetry has been detected, increase convergence thresholds
      if your molecule has a higher symmetry. Symmetry factor of 1.0 is
      used for the rotational entropy correction.

Note: Rotational entropy computed according to Herzberg
Infrared and Raman Spectra, Chapter V,1, Van Nostrand Reinhold, 1945
Point Group:  C1, Symmetry Number:   1
Rotational constants in cm-1:     0.227006     0.114663     0.085809

Vibrational entropy computed according to the QRRHO of S. Grimme
Chem.Eur.J. 2012 18 9955

-------
ENTROPY
-------

The entropy contributions are T*S = T*(S(el)+S(vib)+S(rot)+S(trans))
     S(el)   - electronic entropy
     S(vib)  - vibrational entropy
     S(rot)  - rotational entropy
     S(trans)- translational entropy
The entropies will be listed as multiplied by the temperature to get
units of energy

Electronic entropy                ...      0.00000000 Eh      0.00 kcal/mol
Vibrational entropy               ...      0.00640809 Eh      4.02 kcal/mol
Rotational entropy                ...      0.01239253 Eh      7.78 kcal/mol
Translational entropy             ...      0.01844761 Eh     11.58 kcal/mol
-----------------------------------------------------------------------
Final entropy term                ...      0.03724823 Eh     23.37 kcal/mol

In case the symmetry of your molecule has not been determined correctly
or in case you have a reason to use a different symmetry number we print
out the resulting rotational entropy values for sn=1,12 :
 --------------------------------------------------------
|  sn= 1 | S(rot)=       0.01239253 Eh      7.78 kcal/mol|
|  sn= 2 | S(rot)=       0.01173808 Eh      7.37 kcal/mol|
|  sn= 3 | S(rot)=       0.01135524 Eh      7.13 kcal/mol|
|  sn= 4 | S(rot)=       0.01108362 Eh      6.96 kcal/mol|
|  sn= 5 | S(rot)=       0.01087293 Eh      6.82 kcal/mol|
|  sn= 6 | S(rot)=       0.01070079 Eh      6.71 kcal/mol|
|  sn= 7 | S(rot)=       0.01055524 Eh      6.62 kcal/mol|
|  sn= 8 | S(rot)=       0.01042916 Eh      6.54 kcal/mol|
|  sn= 9 | S(rot)=       0.01031796 Eh      6.47 kcal/mol|
|  sn=10 | S(rot)=       0.01021848 Eh      6.41 kcal/mol|
|  sn=11 | S(rot)=       0.01012849 Eh      6.36 kcal/mol|
|  sn=12 | S(rot)=       0.01004633 Eh      6.30 kcal/mol|
 --------------------------------------------------------

-------------------
GIBBS FREE ENERGY
-------------------

                             ****ORCA TERMINATED NORMALLY****
TOTAL RUN TIME: 0 days 0 hours 4 minutes 48 seconds 855 msec
