                         Program Version 5.0.4 -  RELEASE  -
|  1> # ORCA 5.0.4 - /users/bwb16179/postgrad/2024_06/pKa_Reviewer_Comments/CREST_Confs/butylamine/butylamine_prot_aq_7.inp # write input file
|  2> # Basic Mode
|  3> #
|  4> ! Opt Freq wB97X Def2-SVP D4 SlowConv TightSCF Defgrid2 Def2/J RIJCOSX
|  5>
|  6> %PAL NPROCS 4 END
|  7>
|  8> %maxcore 4500
|  9>
| 10> %geom
| 11> Maxiter 150
| 12> END
| 13>
| 14> * xyzfile 1 1 butylamine_prot_aq_7.xyz
| 15>
| 16>                          ****END OF INPUT****
 Total Charge           Charge          ....    1
 Multiplicity           Mult            ....    1
 Number of Electrons    NEL             ....   42
Dispersion correction           -0.001334127
FINAL SINGLE POINT ENERGY      -213.951681311044
Dispersion correction            ... Starting D4
Dispersion correction           -0.001331293
FINAL SINGLE POINT ENERGY      -213.953500810784
Dispersion correction            ... Starting D4
Dispersion correction           -0.001330325
FINAL SINGLE POINT ENERGY      -213.953864841907
Dispersion correction            ... Starting D4
FINAL SINGLE POINT ENERGY      -213.953945502695
FINAL SINGLE POINT ENERGY      -213.953957010882
FINAL SINGLE POINT ENERGY      -213.954027180351
FINAL SINGLE POINT ENERGY      -213.954153030164
FINAL SINGLE POINT ENERGY      -213.954249991226
FINAL SINGLE POINT ENERGY      -213.954266158683
FINAL SINGLE POINT ENERGY      -213.954297818821
FINAL SINGLE POINT ENERGY      -213.956926413136
FINAL SINGLE POINT ENERGY      -213.957447164735
FINAL SINGLE POINT ENERGY      -213.957796052092
FINAL SINGLE POINT ENERGY      -213.957988158084
FINAL SINGLE POINT ENERGY      -213.958051253851
FINAL SINGLE POINT ENERGY      -213.958132948108
FINAL SINGLE POINT ENERGY      -213.958188541487
Dispersion correction           -0.001298131
FINAL SINGLE POINT ENERGY      -213.958216229286
Dispersion correction            ... Starting D4
Dispersion correction           -0.001298014
FINAL SINGLE POINT ENERGY      -213.958217739462
Dispersion correction            ... Starting D4
                    ***********************HURRAY********************

CARTESIAN COORDINATES (ANGSTROEM)
---------------------------------
  C     -2.131265   -0.661389   -0.331190
  C     -1.418684    0.672483   -0.135349
  H     -1.624684   -1.310433   -1.064110
  H     -3.151590   -0.502512   -0.706938
  H     -2.214270   -1.216666    0.617034
  C     -0.035911    0.557422    0.513842
  H     -2.029220    1.326619    0.505566
  H     -1.325102    1.201307   -1.099310
  C      0.936554   -0.238564   -0.338618
  H     -0.135366    0.075693    1.503768
  H      0.372405    1.569105    0.684737
  N      2.291497   -0.305691    0.318481
  H      1.089251    0.219356   -1.327171
  H      0.613543   -1.278755   -0.485578
  H      2.682624    0.634238    0.465907
  H      2.970694   -0.839099   -0.238797
  H      2.233350   -0.751329    1.243824

 Multiplicity           Mult            ....    1
 Number of Electrons    NEL             ....   42
 Basis Dimension        Dim             ....  130

ORBITAL ENERGIES
----------------

  NO   OCC          E(Eh)            E(eV)
   0   2.0000     -14.741987      -401.1499
   1   2.0000     -10.518067      -286.2112
   2   2.0000     -10.445575      -284.2386
   3   2.0000     -10.411266      -283.3049
   4   2.0000     -10.388943      -282.6975
   5   2.0000      -1.329344       -36.1733
   6   2.0000      -1.098474       -29.8910
   7   2.0000      -1.013229       -27.5714
   8   2.0000      -0.944120       -25.6908
   9   2.0000      -0.905540       -24.6410
  10   2.0000      -0.897502       -24.4223
  11   2.0000      -0.835306       -22.7298
  12   2.0000      -0.803128       -21.8542
  13   2.0000      -0.748996       -20.3812
  14   2.0000      -0.701297       -19.0833
  15   2.0000      -0.674349       -18.3500
  16   2.0000      -0.662069       -18.0158
  17   2.0000      -0.635855       -17.3025
  18   2.0000      -0.588908       -16.0250
  19   2.0000      -0.579359       -15.7652
  20   2.0000      -0.570505       -15.5242
  21   0.0000      -0.082783        -2.2526
  22   0.0000      -0.021578        -0.5872
  23   0.0000      -0.019503        -0.5307
  24   0.0000      -0.004121        -0.1121
  25   0.0000       0.032368         0.8808

MULLIKEN ATOMIC CHARGES
-----------------------
   0 C :   -0.078599
   1 C :   -0.066889
   2 H :    0.036468
   3 H :    0.078312
   4 H :    0.047705
   5 C :   -0.102253
   6 H :    0.072215
   7 H :    0.052391
   8 C :   -0.005150
   9 H :    0.055558
  10 H :    0.060539
  11 N :   -0.008868
  12 H :    0.104784
  13 H :    0.103382
  14 H :    0.214887
  15 H :    0.220278
  16 H :    0.215240
Sum of atomic charges:    1.0000000

LOEWDIN ATOMIC CHARGES
----------------------
   0 C :   -0.064131
   1 C :   -0.034650
   2 H :    0.023348
   3 H :    0.049870
   4 H :    0.033063
   5 C :   -0.052212
   6 H :    0.047519
   7 H :    0.035383
   8 C :    0.058361
   9 H :    0.035608
  10 H :    0.038120
  11 N :    0.290024
  12 H :    0.054605
  13 H :    0.051331
  14 H :    0.143501
  15 H :    0.146313
  16 H :    0.143947

  Mayer bond orders larger than 0.100000
B(  0-C ,  1-C ) :   1.0723 B(  0-C ,  2-H ) :   0.9738 B(  0-C ,  3-H ) :   0.9686
B(  0-C ,  4-H ) :   0.9765 B(  1-C ,  5-C ) :   1.0733 B(  1-C ,  6-H ) :   0.9504
B(  1-C ,  7-H ) :   0.9561 B(  5-C ,  8-C ) :   1.0400 B(  5-C ,  9-H ) :   0.9481
B(  5-C , 10-H ) :   0.9502 B(  8-C , 11-N ) :   0.9097 B(  8-C , 12-H ) :   0.9535
B(  8-C , 13-H ) :   0.9507 B( 11-N , 14-H ) :   0.9338 B( 11-N , 15-H ) :   0.9318
B( 11-N , 16-H ) :   0.9339

Dispersion correction           -0.001297954
FINAL SINGLE POINT ENERGY      -213.958218013957

DIPOLE MOMENT
-------------
                                X             Y             Z
Electronic contribution:      3.71102       0.25995       0.47333
Nuclear contribution   :     -0.43628      -0.63820      -0.06671
                        -----------------------------------------
Total Dipole Moment    :      3.27475      -0.37826       0.40662
                        -----------------------------------------
Magnitude (a.u.)       :      3.32150
Magnitude (Debye)      :      8.44259

Dispersion correction in the Hessian             ... Starting D4

VIBRATIONAL FREQUENCIES
-----------------------

Scaling factor for frequencies =  1.000000000  (already applied!)

   0:         0.00 cm**-1
   1:         0.00 cm**-1
   2:         0.00 cm**-1
   3:         0.00 cm**-1
   4:         0.00 cm**-1
   5:         0.00 cm**-1
   6:        84.44 cm**-1
   7:       108.55 cm**-1
   8:       206.52 cm**-1
   9:       234.44 cm**-1
  10:       284.90 cm**-1
  11:       338.37 cm**-1
  12:       480.07 cm**-1
  13:       753.67 cm**-1
  14:       795.45 cm**-1
  15:       880.36 cm**-1
  16:       900.68 cm**-1
  17:       929.24 cm**-1
  18:      1006.97 cm**-1
  19:      1009.44 cm**-1
  20:      1042.77 cm**-1
  21:      1114.37 cm**-1
  22:      1169.88 cm**-1
  23:      1197.57 cm**-1
  24:      1288.36 cm**-1
  25:      1313.53 cm**-1
  26:      1345.66 cm**-1
  27:      1356.91 cm**-1
  28:      1386.43 cm**-1
  29:      1424.36 cm**-1
  30:      1429.85 cm**-1
  31:      1469.46 cm**-1
  32:      1473.91 cm**-1
  33:      1484.68 cm**-1
  34:      1486.50 cm**-1
  35:      1492.27 cm**-1
  36:      1502.42 cm**-1
  37:      1623.80 cm**-1
  38:      1635.10 cm**-1
  39:      3057.62 cm**-1
  40:      3066.75 cm**-1
  41:      3085.75 cm**-1
  42:      3118.86 cm**-1
  43:      3122.22 cm**-1
  44:      3144.49 cm**-1
  45:      3161.20 cm**-1
  46:      3185.08 cm**-1
  47:      3198.13 cm**-1
  48:      3440.56 cm**-1
  49:      3533.46 cm**-1
  50:      3541.42 cm**-1

IR SPECTRUM
-----------

 Mode   freq       eps      Int      T**2         TX        TY        TZ
       cm**-1   L/(mol*cm) km/mol    a.u.
----------------------------------------------------------------------------
  6:     84.44   0.000292    1.47  0.001077  ( 0.003658  0.024206 -0.021864)
  7:    108.55   0.001156    5.84  0.003323  ( 0.036218  0.043079 -0.012455)
  8:    206.52   0.000713    3.60  0.001077  (-0.009487 -0.018929 -0.025076)
  9:    234.44   0.000017    0.08  0.000022  (-0.000239 -0.001998 -0.004267)
 10:    284.90   0.000344    1.74  0.000377  (-0.010769  0.006384  0.014849)
 11:    338.37   0.001324    6.69  0.001221  ( 0.031983 -0.012745 -0.005980)
 12:    480.07   0.001055    5.33  0.000686  ( 0.023927 -0.010654 -0.000044)
 13:    753.67   0.001035    5.23  0.000428  (-0.012427 -0.009294  0.013699)
 14:    795.45   0.000898    4.54  0.000352  ( 0.005185  0.017986 -0.001438)
 15:    880.36   0.001867    9.44  0.000662  (-0.019955  0.012336  0.010561)
 16:    900.68   0.001356    6.85  0.000470  ( 0.006579  0.011885 -0.016889)
 17:    929.24   0.002185   11.04  0.000734  ( 0.022407 -0.014911 -0.003091)
 18:   1006.97   0.000712    3.60  0.000221  ( 0.000010 -0.003481  0.014436)
 19:   1009.44   0.001549    7.83  0.000479  ( 0.015946  0.014436  0.004025)
 20:   1042.77   0.001761    8.90  0.000527  (-0.010110  0.012959  0.016025)
 21:   1114.37   0.000719    3.63  0.000201  (-0.013566  0.000545 -0.004115)
 22:   1169.88   0.001923    9.72  0.000513  ( 0.015848 -0.015169 -0.005624)
 23:   1197.57   0.000714    3.61  0.000186  ( 0.001790  0.005002 -0.012559)
 24:   1288.36   0.000287    1.45  0.000070  (-0.006621 -0.001992  0.004661)
 25:   1313.53   0.000196    0.99  0.000046  ( 0.004088 -0.001251  0.005308)
 26:   1345.66   0.001634    8.26  0.000379  ( 0.005558  0.017727 -0.005806)
 27:   1356.91   0.000430    2.18  0.000099  ( 0.005368  0.004757 -0.006895)
 28:   1386.43   0.000529    2.67  0.000119  (-0.010273  0.000978 -0.003547)
 29:   1424.36   0.002396   12.11  0.000525  ( 0.022173  0.005264  0.002370)
 30:   1429.85   0.000834    4.21  0.000182  ( 0.001126  0.013441 -0.000082)
 31:   1469.46   0.000493    2.49  0.000105  (-0.001923 -0.009559  0.003087)
 32:   1473.91   0.001176    5.94  0.000249  ( 0.009575 -0.008514 -0.009205)
 33:   1484.68   0.001157    5.85  0.000243  ( 0.012730 -0.007159  0.005465)
 34:   1486.50   0.002292   11.58  0.000481  ( 0.006984  0.003529 -0.020493)
 35:   1492.27   0.004385   22.16  0.000917  ( 0.012338  0.011147  0.025307)
 36:   1502.42   0.028595  144.51  0.005939  ( 0.070878 -0.007848  0.029225)
 37:   1623.80   0.009650   48.77  0.001855  (-0.009875 -0.038387  0.016836)
 38:   1635.10   0.007096   35.86  0.001354  (-0.016319  0.014929  0.029414)
 39:   3057.62   0.002856   14.43  0.000291  (-0.009450 -0.004263 -0.013564)
 40:   3066.75   0.002403   12.14  0.000245  ( 0.001351 -0.015534 -0.001183)
 41:   3085.75   0.001988   10.05  0.000201  ( 0.003137 -0.011714  0.007348)
 42:   3118.86   0.002361   11.93  0.000236  ( 0.004464  0.013846 -0.004964)
 43:   3122.22   0.000215    1.08  0.000021  ( 0.001351  0.000005 -0.004429)
 44:   3144.49   0.000076    0.39  0.000008  ( 0.002080 -0.000380 -0.001758)
 45:   3161.20   0.004629   23.39  0.000457  (-0.009742  0.002554  0.018856)
 46:   3185.08   0.000894    4.52  0.000088  (-0.007022  0.005058 -0.003568)
 47:   3198.13   0.000042    0.21  0.000004  (-0.000515  0.001967 -0.000099)
 48:   3440.56   0.012184   61.57  0.001105  ( 0.030848 -0.002053  0.012219)
 49:   3533.46   0.022831  115.38  0.002016  ( 0.011087  0.038835 -0.019630)
 50:   3541.42   0.025515  128.94  0.002248  (-0.020084  0.023894  0.035694)

--------------------------
THERMOCHEMISTRY AT 298.15K
--------------------------

Temperature         ... 298.15 K
Pressure            ... 1.00 atm
Total Mass          ... 74.15 AMU

Throughout the following assumptions are being made:
  (1) The electronic state is orbitally nondegenerate
  (2) There are no thermally accessible electronically excited states
  (3) Hindered rotations indicated by low frequency modes are not
      treated as such but are treated as vibrations and this may
      cause some error
  (4) All equations used are the standard statistical mechanics
      equations for an ideal gas
  (5) All vibrations are strictly harmonic

freq.      84.44  E(vib)   ...       0.48
freq.     108.55  E(vib)   ...       0.45
freq.     206.52  E(vib)   ...       0.35
freq.     234.44  E(vib)   ...       0.32
freq.     284.90  E(vib)   ...       0.28
freq.     338.37  E(vib)   ...       0.23
freq.     480.07  E(vib)   ...       0.15
freq.     753.67  E(vib)   ...       0.06
freq.     795.45  E(vib)   ...       0.05
freq.     880.36  E(vib)   ...       0.04
freq.     900.68  E(vib)   ...       0.03
freq.     929.24  E(vib)   ...       0.03
freq.    1006.97  E(vib)   ...       0.02
freq.    1009.44  E(vib)   ...       0.02
freq.    1042.77  E(vib)   ...       0.02
freq.    1114.37  E(vib)   ...       0.01
freq.    1169.88  E(vib)   ...       0.01
freq.    1197.57  E(vib)   ...       0.01
freq.    1288.36  E(vib)   ...       0.01
freq.    1313.53  E(vib)   ...       0.01
freq.    1345.66  E(vib)   ...       0.01
freq.    1356.91  E(vib)   ...       0.01
freq.    1386.43  E(vib)   ...       0.00
freq.    1424.36  E(vib)   ...       0.00
freq.    1429.85  E(vib)   ...       0.00
freq.    1469.46  E(vib)   ...       0.00
freq.    1473.91  E(vib)   ...       0.00
freq.    1484.68  E(vib)   ...       0.00
freq.    1486.50  E(vib)   ...       0.00
freq.    1492.27  E(vib)   ...       0.00
freq.    1502.42  E(vib)   ...       0.00
freq.    1623.80  E(vib)   ...       0.00
freq.    1635.10  E(vib)   ...       0.00
freq.    3057.62  E(vib)   ...       0.00
freq.    3066.75  E(vib)   ...       0.00
freq.    3085.75  E(vib)   ...       0.00
freq.    3118.86  E(vib)   ...       0.00
freq.    3122.22  E(vib)   ...       0.00
freq.    3144.49  E(vib)   ...       0.00
freq.    3161.20  E(vib)   ...       0.00
freq.    3185.08  E(vib)   ...       0.00
freq.    3198.13  E(vib)   ...       0.00
freq.    3440.56  E(vib)   ...       0.00
freq.    3533.46  E(vib)   ...       0.00
freq.    3541.42  E(vib)   ...       0.00

------------
INNER ENERGY
------------

The inner energy is: U= E(el) + E(ZPE) + E(vib) + E(rot) + E(trans)
    E(el)   - is the total energy from the electronic structure calculation
              = E(kin-el) + E(nuc-el) + E(el-el) + E(nuc-nuc)
    E(ZPE)  - the the zero temperature vibrational energy from the frequency calculation
    E(vib)  - the the finite temperature correction to E(ZPE) due to population
              of excited vibrational states
    E(rot)  - is the rotational thermal energy
    E(trans)- is the translational thermal energy

Summary of contributions to the inner energy U:
Electronic energy                ...   -213.95821801 Eh
Zero point energy                ...      0.16609316 Eh     104.22 kcal/mol
Thermal vibrational correction   ...      0.00418944 Eh       2.63 kcal/mol
Thermal rotational correction    ...      0.00141627 Eh       0.89 kcal/mol
Thermal translational correction ...      0.00141627 Eh       0.89 kcal/mol
-----------------------------------------------------------------------
Total thermal energy                   -213.78510287 Eh

Summary of corrections to the electronic energy:
(perhaps to be used in another calculation)
Total thermal correction                  0.00702198 Eh       4.41 kcal/mol
Non-thermal (ZPE) correction              0.16609316 Eh     104.22 kcal/mol
-----------------------------------------------------------------------
Total correction                          0.17311514 Eh     108.63 kcal/mol

--------
ENTHALPY
--------

The enthalpy is H = U + kB*T
                kB is Boltzmann's constant
Total free energy                 ...   -213.78510287 Eh
Thermal Enthalpy correction       ...      0.00094421 Eh       0.59 kcal/mol
-----------------------------------------------------------------------
Total Enthalpy                    ...   -213.78415866 Eh

Note: Only C1 symmetry has been detected, increase convergence thresholds
      if your molecule has a higher symmetry. Symmetry factor of 1.0 is
      used for the rotational entropy correction.

Note: Rotational entropy computed according to Herzberg
Infrared and Raman Spectra, Chapter V,1, Van Nostrand Reinhold, 1945
Point Group:  C1, Symmetry Number:   1
Rotational constants in cm-1:     0.384118     0.075164     0.069225

Vibrational entropy computed according to the QRRHO of S. Grimme
Chem.Eur.J. 2012 18 9955

-------
ENTROPY
-------

The entropy contributions are T*S = T*(S(el)+S(vib)+S(rot)+S(trans))
     S(el)   - electronic entropy
     S(vib)  - vibrational entropy
     S(rot)  - rotational entropy
     S(trans)- translational entropy
The entropies will be listed as multiplied by the temperature to get
units of energy

Electronic entropy                ...      0.00000000 Eh      0.00 kcal/mol
Vibrational entropy               ...      0.00724454 Eh      4.55 kcal/mol
Rotational entropy                ...      0.01244498 Eh      7.81 kcal/mol
Translational entropy             ...      0.01844761 Eh     11.58 kcal/mol
-----------------------------------------------------------------------
Final entropy term                ...      0.03813713 Eh     23.93 kcal/mol

In case the symmetry of your molecule has not been determined correctly
or in case you have a reason to use a different symmetry number we print
out the resulting rotational entropy values for sn=1,12 :
 --------------------------------------------------------
|  sn= 1 | S(rot)=       0.01244498 Eh      7.81 kcal/mol|
|  sn= 2 | S(rot)=       0.01179053 Eh      7.40 kcal/mol|
|  sn= 3 | S(rot)=       0.01140769 Eh      7.16 kcal/mol|
|  sn= 4 | S(rot)=       0.01113607 Eh      6.99 kcal/mol|
|  sn= 5 | S(rot)=       0.01092538 Eh      6.86 kcal/mol|
|  sn= 6 | S(rot)=       0.01075324 Eh      6.75 kcal/mol|
|  sn= 7 | S(rot)=       0.01060769 Eh      6.66 kcal/mol|
|  sn= 8 | S(rot)=       0.01048161 Eh      6.58 kcal/mol|
|  sn= 9 | S(rot)=       0.01037040 Eh      6.51 kcal/mol|
|  sn=10 | S(rot)=       0.01027092 Eh      6.45 kcal/mol|
|  sn=11 | S(rot)=       0.01018093 Eh      6.39 kcal/mol|
|  sn=12 | S(rot)=       0.01009878 Eh      6.34 kcal/mol|
 --------------------------------------------------------

-------------------
GIBBS FREE ENERGY
-------------------

                             ****ORCA TERMINATED NORMALLY****
TOTAL RUN TIME: 0 days 0 hours 19 minutes 20 seconds 185 msec
