                         Program Version 5.0.4 -  RELEASE  -
|  1> # ORCA 5.0.4 - /users/bwb16179/postgrad/2024_06/pKa_Reviewer_Comments/CREST_Confs/butylamine/butylamine_prot_aq_0.inp # write input file
|  2> # Basic Mode
|  3> #
|  4> ! Opt Freq wB97X Def2-SVP D4 SlowConv TightSCF Defgrid2 Def2/J RIJCOSX
|  5>
|  6> %PAL NPROCS 4 END
|  7>
|  8> %maxcore 4500
|  9>
| 10> %geom
| 11> Maxiter 150
| 12> END
| 13>
| 14> * xyzfile 1 1 butylamine_prot_aq_0.xyz
| 15>
| 16>                          ****END OF INPUT****
 Total Charge           Charge          ....    1
 Multiplicity           Mult            ....    1
 Number of Electrons    NEL             ....   42
Dispersion correction           -0.001299167
FINAL SINGLE POINT ENERGY      -213.956899125096
Dispersion correction            ... Starting D4
Dispersion correction           -0.001297858
FINAL SINGLE POINT ENERGY      -213.958781087792
Dispersion correction            ... Starting D4
Dispersion correction           -0.001298344
FINAL SINGLE POINT ENERGY      -213.959218107530
Dispersion correction            ... Starting D4
FINAL SINGLE POINT ENERGY      -213.959313670626
FINAL SINGLE POINT ENERGY      -213.959324642748
Dispersion correction           -0.001299299
FINAL SINGLE POINT ENERGY      -213.959330735248
Dispersion correction            ... Starting D4
Dispersion correction           -0.001299325
FINAL SINGLE POINT ENERGY      -213.959333429169
Dispersion correction            ... Starting D4
                    ***********************HURRAY********************

CARTESIAN COORDINATES (ANGSTROEM)
---------------------------------
  C     -2.467918   -0.184629    0.130908
  C     -1.018426   -0.365504   -0.304665
  H     -2.867680    0.777295   -0.224013
  H     -2.561718   -0.206020    1.227470
  H     -3.105353   -0.981808   -0.275578
  C     -0.102039    0.726094    0.249526
  H     -0.957725   -0.366515   -1.407639
  H     -0.678022   -1.366284    0.027871
  C      1.328596    0.659162   -0.252578
  H     -0.114729    0.722817    1.354520
  H     -0.486994    1.716001   -0.044575
  N      1.977808   -0.645286    0.139911
  H      1.957948    1.458137    0.163532
  H      1.382273    0.709121   -1.350060
  H      2.010080   -0.754008    1.162259
  H      2.940212   -0.724182   -0.211091
  H      1.443745   -1.444171   -0.228082

 Multiplicity           Mult            ....    1
 Number of Electrons    NEL             ....   42
 Basis Dimension        Dim             ....  130

ORBITAL ENERGIES
----------------

  NO   OCC          E(Eh)            E(eV)
   0   2.0000     -14.739330      -401.0776
   1   2.0000     -10.518829      -286.2319
   2   2.0000     -10.445234      -284.2293
   3   2.0000     -10.426829      -283.7284
   4   2.0000     -10.389914      -282.7239
   5   2.0000      -1.327467       -36.1222
   6   2.0000      -1.099668       -29.9235
   7   2.0000      -1.024318       -27.8731
   8   2.0000      -0.937700       -25.5161
   9   2.0000      -0.906068       -24.6554
  10   2.0000      -0.892625       -24.2896
  11   2.0000      -0.854598       -23.2548
  12   2.0000      -0.795942       -21.6587
  13   2.0000      -0.741913       -20.1885
  14   2.0000      -0.708336       -19.2748
  15   2.0000      -0.700037       -19.0490
  16   2.0000      -0.649833       -17.6829
  17   2.0000      -0.631536       -17.1850
  18   2.0000      -0.602384       -16.3917
  19   2.0000      -0.583542       -15.8790
  20   2.0000      -0.578237       -15.7346
  21   0.0000      -0.081956        -2.2301
  22   0.0000      -0.021844        -0.5944
  23   0.0000      -0.018013        -0.4902
  24   0.0000       0.005215         0.1419
  25   0.0000       0.029057         0.7907

MULLIKEN ATOMIC CHARGES
-----------------------
   0 C :   -0.031926
   1 C :   -0.134854
   2 H :    0.058858
   3 H :    0.049983
   4 H :    0.070122
   5 C :   -0.096237
   6 H :    0.055239
   7 H :    0.017069
   8 C :    0.017422
   9 H :    0.061164
  10 H :    0.091792
  11 N :   -0.021488
  12 H :    0.111497
  13 H :    0.105193
  14 H :    0.214643
  15 H :    0.221366
  16 H :    0.210155
Sum of atomic charges:    1.0000000

LOEWDIN ATOMIC CHARGES
----------------------
   0 C :   -0.050836
   1 C :   -0.055036
   2 H :    0.038902
   3 H :    0.035566
   4 H :    0.044924
   5 C :   -0.049506
   6 H :    0.034441
   7 H :    0.014099
   8 C :    0.061088
   9 H :    0.039019
  10 H :    0.061291
  11 N :    0.288567
  12 H :    0.056367
  13 H :    0.054122
  14 H :    0.143925
  15 H :    0.146016
  16 H :    0.137050

  Mayer bond orders larger than 0.100000
B(  0-C ,  1-C ) :   1.0915 B(  0-C ,  2-H ) :   0.9770 B(  0-C ,  3-H ) :   0.9744
B(  0-C ,  4-H ) :   0.9707 B(  1-C ,  5-C ) :   1.0316 B(  1-C ,  6-H ) :   0.9577
B(  1-C ,  7-H ) :   0.9453 B(  5-C ,  8-C ) :   1.0679 B(  5-C ,  9-H ) :   0.9499
B(  5-C , 10-H ) :   0.9402 B(  8-C , 11-N ) :   0.8986 B(  8-C , 12-H ) :   0.9546
B(  8-C , 13-H ) :   0.9527 B( 11-N , 14-H ) :   0.9342 B( 11-N , 15-H ) :   0.9315
B( 11-N , 16-H ) :   0.9314

Dispersion correction           -0.001299341
FINAL SINGLE POINT ENERGY      -213.959334849097

DIPOLE MOMENT
-------------
                                X             Y             Z
Electronic contribution:      3.72434      -0.23839      -0.01132
Nuclear contribution   :     -0.88916      -0.51509       0.17845
                        -----------------------------------------
Total Dipole Moment    :      2.83518      -0.75348       0.16713
                        -----------------------------------------
Magnitude (a.u.)       :      2.93835
Magnitude (Debye)      :      7.46869

Dispersion correction in the Hessian             ... Starting D4

VIBRATIONAL FREQUENCIES
-----------------------

Scaling factor for frequencies =  1.000000000  (already applied!)

   0:         0.00 cm**-1
   1:         0.00 cm**-1
   2:         0.00 cm**-1
   3:         0.00 cm**-1
   4:         0.00 cm**-1
   5:         0.00 cm**-1
   6:        92.22 cm**-1
   7:       139.94 cm**-1
   8:       198.71 cm**-1
   9:       247.11 cm**-1
  10:       284.50 cm**-1
  11:       334.29 cm**-1
  12:       491.24 cm**-1
  13:       739.39 cm**-1
  14:       813.04 cm**-1
  15:       854.10 cm**-1
  16:       900.87 cm**-1
  17:       930.11 cm**-1
  18:       998.64 cm**-1
  19:      1034.45 cm**-1
  20:      1057.50 cm**-1
  21:      1096.12 cm**-1
  22:      1169.56 cm**-1
  23:      1202.70 cm**-1
  24:      1280.94 cm**-1
  25:      1314.19 cm**-1
  26:      1332.60 cm**-1
  27:      1354.88 cm**-1
  28:      1405.07 cm**-1
  29:      1420.32 cm**-1
  30:      1437.52 cm**-1
  31:      1460.32 cm**-1
  32:      1471.29 cm**-1
  33:      1479.88 cm**-1
  34:      1481.78 cm**-1
  35:      1488.74 cm**-1
  36:      1502.65 cm**-1
  37:      1621.59 cm**-1
  38:      1633.11 cm**-1
  39:      3029.32 cm**-1
  40:      3073.38 cm**-1
  41:      3077.96 cm**-1
  42:      3099.02 cm**-1
  43:      3122.12 cm**-1
  44:      3144.42 cm**-1
  45:      3176.03 cm**-1
  46:      3191.38 cm**-1
  47:      3197.57 cm**-1
  48:      3440.72 cm**-1
  49:      3530.06 cm**-1
  50:      3545.69 cm**-1

IR SPECTRUM
-----------

 Mode   freq       eps      Int      T**2         TX        TY        TZ
       cm**-1   L/(mol*cm) km/mol    a.u.
----------------------------------------------------------------------------
  6:     92.22   0.000611    3.09  0.002068  ( 0.008665  0.004679  0.044395)
  7:    139.94   0.001826    9.23  0.004072  ( 0.059613  0.020987  0.008810)
  8:    198.71   0.001200    6.07  0.001885  ( 0.043333  0.001883  0.001877)
  9:    247.11   0.000026    0.13  0.000033  ( 0.005449  0.000860  0.001736)
 10:    284.50   0.000025    0.13  0.000027  (-0.000129  0.004486 -0.002697)
 11:    334.29   0.002626   13.27  0.002452  (-0.046784  0.013084  0.009570)
 12:    491.24   0.000697    3.52  0.000443  ( 0.019592 -0.003950 -0.006593)
 13:    739.39   0.001478    7.47  0.000624  (-0.016742  0.008146 -0.016641)
 14:    813.04   0.001577    7.97  0.000605  ( 0.019720  0.012194  0.008235)
 15:    854.10   0.000338    1.71  0.000123  (-0.006787  0.008182 -0.003230)
 16:    900.87   0.002059   10.40  0.000713  ( 0.001940 -0.011727 -0.023915)
 17:    930.11   0.002037   10.29  0.000683  (-0.025377 -0.003680 -0.005078)
 18:    998.64   0.000971    4.91  0.000303  ( 0.012862  0.006325 -0.009897)
 19:   1034.45   0.001821    9.20  0.000549  (-0.022512  0.003456  0.005521)
 20:   1057.50   0.002039   10.30  0.000602  ( 0.015670 -0.018776 -0.001897)
 21:   1096.12   0.000403    2.03  0.000115  ( 0.004017  0.008541 -0.005054)
 22:   1169.56   0.002066   10.44  0.000551  (-0.020554 -0.010216  0.004941)
 23:   1202.70   0.000835    4.22  0.000217  ( 0.006347  0.003273 -0.012872)
 24:   1280.94   0.000992    5.01  0.000242  ( 0.009207  0.004904 -0.011528)
 25:   1314.19   0.000709    3.58  0.000168  ( 0.008093  0.007644  0.006663)
 26:   1332.60   0.000328    1.66  0.000077  (-0.007533  0.003835 -0.002305)
 27:   1354.88   0.002436   12.31  0.000561  ( 0.011733  0.012418  0.016408)
 28:   1405.07   0.000574    2.90  0.000127  ( 0.010529 -0.003825 -0.001418)
 29:   1420.32   0.000034    0.17  0.000007  (-0.001391 -0.001883  0.001385)
 30:   1437.52   0.000809    4.09  0.000176  ( 0.012894  0.003037 -0.000408)
 31:   1460.32   0.002219   11.22  0.000474  (-0.011602  0.014179  0.011773)
 32:   1471.29   0.001405    7.10  0.000298  (-0.017071  0.002327 -0.001063)
 33:   1479.88   0.003046   15.39  0.000642  (-0.004124  0.012734 -0.021519)
 34:   1481.78   0.004771   24.11  0.001005  ( 0.010973  0.026276 -0.013931)
 35:   1488.74   0.003331   16.83  0.000698  ( 0.011562 -0.021385 -0.010356)
 36:   1502.65   0.028355  143.30  0.005889  ( 0.046386 -0.058923  0.016282)
 37:   1621.59   0.009254   46.77  0.001781  ( 0.000244 -0.017352 -0.038468)
 38:   1633.11   0.007218   36.48  0.001379  (-0.035814 -0.008745  0.004489)
 39:   3029.32   0.009138   46.18  0.000941  (-0.018310  0.024465  0.002752)
 40:   3073.38   0.001102    5.57  0.000112  ( 0.002356  0.004600  0.009228)
 41:   3077.96   0.001821    9.20  0.000185  ( 0.011732 -0.003274 -0.006024)
 42:   3099.02   0.002989   15.11  0.000301  ( 0.002679 -0.006471  0.015874)
 43:   3122.12   0.000208    1.05  0.000021  (-0.003865 -0.001023  0.002201)
 44:   3144.42   0.000620    3.13  0.000062  (-0.000419 -0.003396  0.007060)
 45:   3176.03   0.002163   10.93  0.000213  ( 0.002762 -0.006892  0.012546)
 46:   3191.38   0.000956    4.83  0.000094  ( 0.002615  0.008422  0.003968)
 47:   3197.57   0.000020    0.10  0.000002  (-0.001034 -0.000287 -0.000889)
 48:   3440.72   0.009064   45.81  0.000822  (-0.012157  0.024918 -0.007308)
 49:   3530.06   0.024407  123.35  0.002158  (-0.025323 -0.016956 -0.035056)
 50:   3545.69   0.028350  143.27  0.002495  ( 0.042683  0.005809 -0.025290)

--------------------------
THERMOCHEMISTRY AT 298.15K
--------------------------

Temperature         ... 298.15 K
Pressure            ... 1.00 atm
Total Mass          ... 74.15 AMU

Throughout the following assumptions are being made:
  (1) The electronic state is orbitally nondegenerate
  (2) There are no thermally accessible electronically excited states
  (3) Hindered rotations indicated by low frequency modes are not
      treated as such but are treated as vibrations and this may
      cause some error
  (4) All equations used are the standard statistical mechanics
      equations for an ideal gas
  (5) All vibrations are strictly harmonic

freq.      92.22  E(vib)   ...       0.47
freq.     139.94  E(vib)   ...       0.41
freq.     198.71  E(vib)   ...       0.35
freq.     247.11  E(vib)   ...       0.31
freq.     284.50  E(vib)   ...       0.28
freq.     334.29  E(vib)   ...       0.24
freq.     491.24  E(vib)   ...       0.14
freq.     739.39  E(vib)   ...       0.06
freq.     813.04  E(vib)   ...       0.05
freq.     854.10  E(vib)   ...       0.04
freq.     900.87  E(vib)   ...       0.03
freq.     930.11  E(vib)   ...       0.03
freq.     998.64  E(vib)   ...       0.02
freq.    1034.45  E(vib)   ...       0.02
freq.    1057.50  E(vib)   ...       0.02
freq.    1096.12  E(vib)   ...       0.02
freq.    1169.56  E(vib)   ...       0.01
freq.    1202.70  E(vib)   ...       0.01
freq.    1280.94  E(vib)   ...       0.01
freq.    1314.19  E(vib)   ...       0.01
freq.    1332.60  E(vib)   ...       0.01
freq.    1354.88  E(vib)   ...       0.01
freq.    1405.07  E(vib)   ...       0.00
freq.    1420.32  E(vib)   ...       0.00
freq.    1437.52  E(vib)   ...       0.00
freq.    1460.32  E(vib)   ...       0.00
freq.    1471.29  E(vib)   ...       0.00
freq.    1479.88  E(vib)   ...       0.00
freq.    1481.78  E(vib)   ...       0.00
freq.    1488.74  E(vib)   ...       0.00
freq.    1502.65  E(vib)   ...       0.00
freq.    1621.59  E(vib)   ...       0.00
freq.    1633.11  E(vib)   ...       0.00
freq.    3029.32  E(vib)   ...       0.00
freq.    3073.38  E(vib)   ...       0.00
freq.    3077.96  E(vib)   ...       0.00
freq.    3099.02  E(vib)   ...       0.00
freq.    3122.12  E(vib)   ...       0.00
freq.    3144.42  E(vib)   ...       0.00
freq.    3176.03  E(vib)   ...       0.00
freq.    3191.38  E(vib)   ...       0.00
freq.    3197.57  E(vib)   ...       0.00
freq.    3440.72  E(vib)   ...       0.00
freq.    3530.06  E(vib)   ...       0.00
freq.    3545.69  E(vib)   ...       0.00

------------
INNER ENERGY
------------

The inner energy is: U= E(el) + E(ZPE) + E(vib) + E(rot) + E(trans)
    E(el)   - is the total energy from the electronic structure calculation
              = E(kin-el) + E(nuc-el) + E(el-el) + E(nuc-nuc)
    E(ZPE)  - the the zero temperature vibrational energy from the frequency calculation
    E(vib)  - the the finite temperature correction to E(ZPE) due to population
              of excited vibrational states
    E(rot)  - is the rotational thermal energy
    E(trans)- is the translational thermal energy

Summary of contributions to the inner energy U:
Electronic energy                ...   -213.95933485 Eh
Zero point energy                ...      0.16607172 Eh     104.21 kcal/mol
Thermal vibrational correction   ...      0.00411159 Eh       2.58 kcal/mol
Thermal rotational correction    ...      0.00141627 Eh       0.89 kcal/mol
Thermal translational correction ...      0.00141627 Eh       0.89 kcal/mol
-----------------------------------------------------------------------
Total thermal energy                   -213.78631900 Eh

Summary of corrections to the electronic energy:
(perhaps to be used in another calculation)
Total thermal correction                  0.00694413 Eh       4.36 kcal/mol
Non-thermal (ZPE) correction              0.16607172 Eh     104.21 kcal/mol
-----------------------------------------------------------------------
Total correction                          0.17301585 Eh     108.57 kcal/mol

--------
ENTHALPY
--------

The enthalpy is H = U + kB*T
                kB is Boltzmann's constant
Total free energy                 ...   -213.78631900 Eh
Thermal Enthalpy correction       ...      0.00094421 Eh       0.59 kcal/mol
-----------------------------------------------------------------------
Total Enthalpy                    ...   -213.78537479 Eh

Note: Only C1 symmetry has been detected, increase convergence thresholds
      if your molecule has a higher symmetry. Symmetry factor of 1.0 is
      used for the rotational entropy correction.

Note: Rotational entropy computed according to Herzberg
Infrared and Raman Spectra, Chapter V,1, Van Nostrand Reinhold, 1945
Point Group:  C1, Symmetry Number:   1
Rotational constants in cm-1:     0.380618     0.076414     0.069931

Vibrational entropy computed according to the QRRHO of S. Grimme
Chem.Eur.J. 2012 18 9955

-------
ENTROPY
-------

The entropy contributions are T*S = T*(S(el)+S(vib)+S(rot)+S(trans))
     S(el)   - electronic entropy
     S(vib)  - vibrational entropy
     S(rot)  - rotational entropy
     S(trans)- translational entropy
The entropies will be listed as multiplied by the temperature to get
units of energy

Electronic entropy                ...      0.00000000 Eh      0.00 kcal/mol
Vibrational entropy               ...      0.00704946 Eh      4.42 kcal/mol
Rotational entropy                ...      0.01243673 Eh      7.80 kcal/mol
Translational entropy             ...      0.01844761 Eh     11.58 kcal/mol
-----------------------------------------------------------------------
Final entropy term                ...      0.03793380 Eh     23.80 kcal/mol

In case the symmetry of your molecule has not been determined correctly
or in case you have a reason to use a different symmetry number we print
out the resulting rotational entropy values for sn=1,12 :
 --------------------------------------------------------
|  sn= 1 | S(rot)=       0.01243673 Eh      7.80 kcal/mol|
|  sn= 2 | S(rot)=       0.01178227 Eh      7.39 kcal/mol|
|  sn= 3 | S(rot)=       0.01139944 Eh      7.15 kcal/mol|
|  sn= 4 | S(rot)=       0.01112782 Eh      6.98 kcal/mol|
|  sn= 5 | S(rot)=       0.01091713 Eh      6.85 kcal/mol|
|  sn= 6 | S(rot)=       0.01074499 Eh      6.74 kcal/mol|
|  sn= 7 | S(rot)=       0.01059944 Eh      6.65 kcal/mol|
|  sn= 8 | S(rot)=       0.01047336 Eh      6.57 kcal/mol|
|  sn= 9 | S(rot)=       0.01036215 Eh      6.50 kcal/mol|
|  sn=10 | S(rot)=       0.01026267 Eh      6.44 kcal/mol|
|  sn=11 | S(rot)=       0.01017268 Eh      6.38 kcal/mol|
|  sn=12 | S(rot)=       0.01009053 Eh      6.33 kcal/mol|
 --------------------------------------------------------

-------------------
GIBBS FREE ENERGY
-------------------

                             ****ORCA TERMINATED NORMALLY****
TOTAL RUN TIME: 0 days 0 hours 4 minutes 27 seconds 138 msec
