                         Program Version 5.0.4 -  RELEASE  -
|  1> # ORCA 5.0.4 - /users/bwb16179/postgrad/2024_03/DFT_Crest_Conformers/Opt/deprot/1_deprot_aq_1.inp # write input file
|  2> # Basic Mode
|  3> #
|  4> ! Opt Freq wB97X Def2-SVP D4 SlowConv TightSCF Defgrid2 Def2/J RIJCOSX CPCM(Water)
|  5>
|  6>
|  7>
|  8> %maxcore 4500
|  9>
| 10> %geom
| 11> Maxiter 150
| 12> END
| 13>
| 14> * xyzfile 0 1 1_deprot_aq_1.xyz
| 15>
| 16>                          ****END OF INPUT****
 Total Charge           Charge          ....    0
 Multiplicity           Mult            ....    1
 Number of Electrons    NEL             ....   52
Dispersion correction           -0.001732883
FINAL SINGLE POINT ENERGY      -304.511401275686
Dispersion correction            ... Starting D4
Dispersion correction           -0.001728625
FINAL SINGLE POINT ENERGY      -304.512773152022
Dispersion correction            ... Starting D4
Dispersion correction           -0.001728091
FINAL SINGLE POINT ENERGY      -304.512807836955
Dispersion correction            ... Starting D4
Dispersion correction           -0.001727981
FINAL SINGLE POINT ENERGY      -304.512813834419
Dispersion correction            ... Starting D4
                    ***********************HURRAY********************

CARTESIAN COORDINATES (ANGSTROEM)
---------------------------------
  N     -1.061555   -0.133890    0.000013
  C     -0.000007   -0.984252   -0.000037
  N      1.061551   -0.133901    0.000014
  C      0.677887    1.196881    0.000124
  C     -0.677877    1.196887    0.000117
  C     -2.446915   -0.563349    0.000060
  C      2.446904   -0.563381    0.000058
  H     -2.968999   -0.190690   -0.893711
  H     -2.968232   -0.193411    0.895417
  H     -2.467637   -1.659679   -0.001592
  H      2.968989   -0.190748   -0.893724
  H      2.467608   -1.659710   -0.001573
  H      2.968234   -0.193433    0.895403
  H      1.393433    2.017833    0.000123
  H     -1.393415    2.017846    0.000111

 Multiplicity           Mult            ....    1
 Number of Electrons    NEL             ....   52
 Basis Dimension        Dim             ....  138

ORBITAL ENERGIES
----------------

  NO   OCC          E(Eh)            E(eV)
   0   2.0000     -14.450744      -393.2247
   1   2.0000     -14.450743      -393.2247
   2   2.0000     -10.300342      -280.2866
   3   2.0000     -10.300311      -280.2857
   4   2.0000     -10.294883      -280.1380
   5   2.0000     -10.294304      -280.1223
   6   2.0000     -10.277223      -279.6575
   7   2.0000      -1.148058       -31.2402
   8   2.0000      -1.034678       -28.1550
   9   2.0000      -0.893657       -24.3176
  10   2.0000      -0.845865       -23.0172
  11   2.0000      -0.797447       -21.6996
  12   2.0000      -0.710483       -19.3332
  13   2.0000      -0.679613       -18.4932
  14   2.0000      -0.631838       -17.1932
  15   2.0000      -0.589479       -16.0405
  16   2.0000      -0.558525       -15.1982
  17   2.0000      -0.548590       -14.9279
  18   2.0000      -0.538638       -14.6571
  19   2.0000      -0.537324       -14.6213
  20   2.0000      -0.491624       -13.3778
  21   2.0000      -0.483302       -13.1513
  22   2.0000      -0.482212       -13.1217
  23   2.0000      -0.371258       -10.1024
  24   2.0000      -0.326252        -8.8778
  25   2.0000      -0.325963        -8.8699
  26   0.0000       0.119620         3.2550
  27   0.0000       0.131769         3.5856
  28   0.0000       0.171321         4.6619
  29   0.0000       0.172804         4.7022
  30   0.0000       0.202728         5.5165

MULLIKEN ATOMIC CHARGES
-----------------------
   0 N :   -0.239818
   1 C :   -0.216759
   2 N :   -0.239819
   3 C :    0.019327
   4 C :    0.019326
   5 C :    0.092299
   6 C :    0.092301
   7 H :    0.060343
   8 H :    0.060355
   9 H :    0.051386
  10 H :    0.060343
  11 H :    0.051385
  12 H :    0.060355
  13 H :    0.064487
  14 H :    0.064487
Sum of atomic charges:   -0.0000000

LOEWDIN ATOMIC CHARGES
----------------------
   0 N :    0.020004
   1 C :   -0.324358
   2 N :    0.020003
   3 C :   -0.034312
   4 C :   -0.034313
   5 C :    0.030788
   6 C :    0.030788
   7 H :    0.034485
   8 H :    0.034471
   9 H :    0.034812
  10 H :    0.034484
  11 H :    0.034812
  12 H :    0.034471
  13 H :    0.041931
  14 H :    0.041931

  Mayer bond orders larger than 0.100000
B(  0-N ,  1-C ) :   1.2461 B(  0-N ,  4-C ) :   1.1329 B(  0-N ,  5-C ) :   0.9450
B(  1-C ,  2-N ) :   1.2461 B(  2-N ,  3-C ) :   1.1329 B(  2-N ,  6-C ) :   0.9450
B(  3-C ,  4-C ) :   1.6272 B(  3-C , 13-H ) :   0.9916 B(  4-C , 14-H ) :   0.9916
B(  5-C ,  7-H ) :   0.9788 B(  5-C ,  8-H ) :   0.9788 B(  5-C ,  9-H ) :   0.9732
B(  6-C , 10-H ) :   0.9788 B(  6-C , 11-H ) :   0.9732 B(  6-C , 12-H ) :   0.9788

Dispersion correction           -0.001728010
FINAL SINGLE POINT ENERGY      -304.512814711665

DIPOLE MOMENT
-------------
                                X             Y             Z
Electronic contribution:      0.00001       1.44742       0.00002
Nuclear contribution   :     -0.00000      -0.01845       0.00006
                        -----------------------------------------
Total Dipole Moment    :      0.00001       1.42898       0.00007
                        -----------------------------------------
Magnitude (a.u.)       :      1.42898
Magnitude (Debye)      :      3.63218

Dispersion correction in the Hessian             ... Starting D4

VIBRATIONAL FREQUENCIES
-----------------------

Scaling factor for frequencies =  1.000000000  (already applied!)

   0:         0.00 cm**-1
   1:         0.00 cm**-1
   2:         0.00 cm**-1
   3:         0.00 cm**-1
   4:         0.00 cm**-1
   5:         0.00 cm**-1
   6:        60.62 cm**-1
   7:        63.02 cm**-1
   8:       188.86 cm**-1
   9:       275.13 cm**-1
  10:       289.95 cm**-1
  11:       442.44 cm**-1
  12:       630.68 cm**-1
  13:       638.12 cm**-1
  14:       641.77 cm**-1
  15:       746.19 cm**-1
  16:       763.55 cm**-1
  17:       879.20 cm**-1
  18:      1023.37 cm**-1
  19:      1036.28 cm**-1
  20:      1077.71 cm**-1
  21:      1089.77 cm**-1
  22:      1097.90 cm**-1
  23:      1144.00 cm**-1
  24:      1144.12 cm**-1
  25:      1237.65 cm**-1
  26:      1380.98 cm**-1
  27:      1408.92 cm**-1
  28:      1420.99 cm**-1
  29:      1422.73 cm**-1
  30:      1449.12 cm**-1
  31:      1449.92 cm**-1
  32:      1450.59 cm**-1
  33:      1475.83 cm**-1
  34:      1481.62 cm**-1
  35:      1512.20 cm**-1
  36:      1660.68 cm**-1
  37:      3076.44 cm**-1
  38:      3077.42 cm**-1
  39:      3174.86 cm**-1
  40:      3174.87 cm**-1
  41:      3214.99 cm**-1
  42:      3215.14 cm**-1
  43:      3281.34 cm**-1
  44:      3302.41 cm**-1

IR SPECTRUM
-----------

 Mode   freq       eps      Int      T**2         TX        TY        TZ
       cm**-1   L/(mol*cm) km/mol    a.u.
----------------------------------------------------------------------------
  6:     60.62   0.000000    0.00  0.000000  (-0.000134  0.000002  0.000032)
  7:     63.02   0.000015    0.07  0.000073  (-0.000001  0.000139  0.008571)
  8:    188.86   0.006315   31.91  0.010434  ( 0.000000 -0.000021  0.102148)
  9:    275.13   0.000000    0.00  0.000000  ( 0.000012  0.000001  0.000001)
 10:    289.95   0.001330    6.72  0.001432  (-0.000001 -0.037841 -0.000010)
 11:    442.44   0.003075   15.54  0.002169  ( 0.046570 -0.000000  0.000000)
 12:    630.68   0.000581    2.94  0.000288  ( 0.000000  0.016956 -0.000011)
 13:    638.12   0.000000    0.00  0.000000  (-0.000029  0.000000  0.000001)
 14:    641.77   0.000099    0.50  0.000048  (-0.000000  0.000032 -0.006948)
 15:    746.19   0.015700   79.34  0.006566  ( 0.000000  0.000006  0.081030)
 16:    763.55   0.005195   26.26  0.002123  ( 0.046080 -0.000000 -0.000000)
 17:    879.20   0.000000    0.00  0.000000  ( 0.000013  0.000000 -0.000001)
 18:   1023.37   0.000442    2.23  0.000135  (-0.011603  0.000001  0.000000)
 19:   1036.28   0.000033    0.16  0.000010  ( 0.000000  0.003133 -0.000012)
 20:   1077.71   0.001978   10.00  0.000573  (-0.000000 -0.023932  0.000007)
 21:   1089.77   0.000066    0.33  0.000019  ( 0.004356 -0.000002 -0.000000)
 22:   1097.90   0.002097   10.60  0.000596  ( 0.000000 -0.024416  0.000001)
 23:   1144.00   0.000013    0.06  0.000003  (-0.000001 -0.000003  0.001859)
 24:   1144.12   0.000000    0.00  0.000000  (-0.000114 -0.000000  0.000002)
 25:   1237.65   0.013733   69.40  0.003463  (-0.058844  0.000000 -0.000000)
 26:   1380.98   0.000642    3.25  0.000145  (-0.012048 -0.000000  0.000000)
 27:   1408.92   0.000008    0.04  0.000002  (-0.000001 -0.001294 -0.000039)
 28:   1420.99   0.005614   28.37  0.001233  ( 0.035112  0.000003 -0.000001)
 29:   1422.73   0.001479    7.47  0.000324  (-0.000005  0.018011  0.000088)
 30:   1449.12   0.000121    0.61  0.000026  ( 0.000000 -0.005103  0.000140)
 31:   1449.92   0.000000    0.00  0.000000  ( 0.000191  0.000001 -0.000009)
 32:   1450.59   0.006205   31.36  0.001335  ( 0.000002  0.000089  0.036535)
 33:   1475.83   0.002784   14.07  0.000589  ( 0.024262 -0.000001 -0.000001)
 34:   1481.62   0.008426   42.58  0.001775  (-0.000000 -0.042127  0.000086)
 35:   1512.20   0.016439   83.08  0.003392  ( 0.058244 -0.000001 -0.000000)
 36:   1660.68   0.000014    0.07  0.000003  (-0.000000 -0.001632  0.000008)
 37:   3076.44   0.021000  106.12  0.002130  (-0.046153  0.000000  0.000000)
 38:   3077.42   0.000109    0.55  0.000011  (-0.000003 -0.003323  0.000036)
 39:   3174.86   0.006518   32.94  0.000641  (-0.000000 -0.000021  0.025312)
 40:   3174.87   0.000010    0.05  0.000001  (-0.000013  0.000001 -0.000972)
 41:   3214.99   0.001402    7.08  0.000136  (-0.000010 -0.011665 -0.000014)
 42:   3215.14   0.000167    0.84  0.000016  ( 0.004024 -0.000028 -0.000000)
 43:   3281.34   0.001485    7.50  0.000141  (-0.011884  0.000000  0.000000)
 44:   3302.41   0.000150    0.76  0.000014  (-0.000000 -0.003760  0.000001)

--------------------------
THERMOCHEMISTRY AT 298.15K
--------------------------

Temperature         ... 298.15 K
Pressure            ... 1.00 atm
Total Mass          ... 96.13 AMU

Throughout the following assumptions are being made:
  (1) The electronic state is orbitally nondegenerate
  (2) There are no thermally accessible electronically excited states
  (3) Hindered rotations indicated by low frequency modes are not
      treated as such but are treated as vibrations and this may
      cause some error
  (4) All equations used are the standard statistical mechanics
      equations for an ideal gas
  (5) All vibrations are strictly harmonic

freq.      60.62  E(vib)   ...       0.51
freq.      63.02  E(vib)   ...       0.51
freq.     188.86  E(vib)   ...       0.36
freq.     275.13  E(vib)   ...       0.28
freq.     289.95  E(vib)   ...       0.27
freq.     442.44  E(vib)   ...       0.17
freq.     630.68  E(vib)   ...       0.09
freq.     638.12  E(vib)   ...       0.09
freq.     641.77  E(vib)   ...       0.09
freq.     746.19  E(vib)   ...       0.06
freq.     763.55  E(vib)   ...       0.06
freq.     879.20  E(vib)   ...       0.04
freq.    1023.37  E(vib)   ...       0.02
freq.    1036.28  E(vib)   ...       0.02
freq.    1077.71  E(vib)   ...       0.02
freq.    1089.77  E(vib)   ...       0.02
freq.    1097.90  E(vib)   ...       0.02
freq.    1144.00  E(vib)   ...       0.01
freq.    1144.12  E(vib)   ...       0.01
freq.    1237.65  E(vib)   ...       0.01
freq.    1380.98  E(vib)   ...       0.01
freq.    1408.92  E(vib)   ...       0.00
freq.    1420.99  E(vib)   ...       0.00
freq.    1422.73  E(vib)   ...       0.00
freq.    1449.12  E(vib)   ...       0.00
freq.    1449.92  E(vib)   ...       0.00
freq.    1450.59  E(vib)   ...       0.00
freq.    1475.83  E(vib)   ...       0.00
freq.    1481.62  E(vib)   ...       0.00
freq.    1512.20  E(vib)   ...       0.00
freq.    1660.68  E(vib)   ...       0.00
freq.    3076.44  E(vib)   ...       0.00
freq.    3077.42  E(vib)   ...       0.00
freq.    3174.86  E(vib)   ...       0.00
freq.    3174.87  E(vib)   ...       0.00
freq.    3214.99  E(vib)   ...       0.00
freq.    3215.14  E(vib)   ...       0.00
freq.    3281.34  E(vib)   ...       0.00
freq.    3302.41  E(vib)   ...       0.00

------------
INNER ENERGY
------------

The inner energy is: U= E(el) + E(ZPE) + E(vib) + E(rot) + E(trans)
    E(el)   - is the total energy from the electronic structure calculation
              = E(kin-el) + E(nuc-el) + E(el-el) + E(nuc-nuc)
    E(ZPE)  - the the zero temperature vibrational energy from the frequency calculation
    E(vib)  - the the finite temperature correction to E(ZPE) due to population
              of excited vibrational states
    E(rot)  - is the rotational thermal energy
    E(trans)- is the translational thermal energy

Summary of contributions to the inner energy U:
Electronic energy                ...   -304.51281471 Eh
Zero point energy                ...      0.12780835 Eh      80.20 kcal/mol
Thermal vibrational correction   ...      0.00428562 Eh       2.69 kcal/mol
Thermal rotational correction    ...      0.00141627 Eh       0.89 kcal/mol
Thermal translational correction ...      0.00141627 Eh       0.89 kcal/mol
-----------------------------------------------------------------------
Total thermal energy                   -304.37788820 Eh

Summary of corrections to the electronic energy:
(perhaps to be used in another calculation)
Total thermal correction                  0.00711816 Eh       4.47 kcal/mol
Non-thermal (ZPE) correction              0.12780835 Eh      80.20 kcal/mol
-----------------------------------------------------------------------
Total correction                          0.13492651 Eh      84.67 kcal/mol

--------
ENTHALPY
--------

The enthalpy is H = U + kB*T
                kB is Boltzmann's constant
Total free energy                 ...   -304.37788820 Eh
Thermal Enthalpy correction       ...      0.00094421 Eh       0.59 kcal/mol
-----------------------------------------------------------------------
Total Enthalpy                    ...   -304.37694399 Eh

Note: Rotational entropy computed according to Herzberg
Infrared and Raman Spectra, Chapter V,1, Van Nostrand Reinhold, 1945
Point Group:  Cs, Symmetry Number:   1
Rotational constants in cm-1:     0.236401     0.069837     0.055047

Vibrational entropy computed according to the QRRHO of S. Grimme
Chem.Eur.J. 2012 18 9955

-------
ENTROPY
-------

The entropy contributions are T*S = T*(S(el)+S(vib)+S(rot)+S(trans))
     S(el)   - electronic entropy
     S(vib)  - vibrational entropy
     S(rot)  - rotational entropy
     S(trans)- translational entropy
The entropies will be listed as multiplied by the temperature to get
units of energy

Electronic entropy                ...      0.00000000 Eh      0.00 kcal/mol
Vibrational entropy               ...      0.00737487 Eh      4.63 kcal/mol
Rotational entropy                ...      0.01281704 Eh      8.04 kcal/mol
Translational entropy             ...      0.01881539 Eh     11.81 kcal/mol
-----------------------------------------------------------------------
Final entropy term                ...      0.03900730 Eh     24.48 kcal/mol

In case the symmetry of your molecule has not been determined correctly
or in case you have a reason to use a different symmetry number we print
out the resulting rotational entropy values for sn=1,12 :
 --------------------------------------------------------
|  sn= 1 | S(rot)=       0.01281704 Eh      8.04 kcal/mol|
|  sn= 2 | S(rot)=       0.01216259 Eh      7.63 kcal/mol|
|  sn= 3 | S(rot)=       0.01177975 Eh      7.39 kcal/mol|
|  sn= 4 | S(rot)=       0.01150813 Eh      7.22 kcal/mol|
|  sn= 5 | S(rot)=       0.01129744 Eh      7.09 kcal/mol|
|  sn= 6 | S(rot)=       0.01112530 Eh      6.98 kcal/mol|
|  sn= 7 | S(rot)=       0.01097975 Eh      6.89 kcal/mol|
|  sn= 8 | S(rot)=       0.01085367 Eh      6.81 kcal/mol|
|  sn= 9 | S(rot)=       0.01074247 Eh      6.74 kcal/mol|
|  sn=10 | S(rot)=       0.01064299 Eh      6.68 kcal/mol|
|  sn=11 | S(rot)=       0.01055300 Eh      6.62 kcal/mol|
|  sn=12 | S(rot)=       0.01047084 Eh      6.57 kcal/mol|
 --------------------------------------------------------

-------------------
GIBBS FREE ENERGY
-------------------

The Gibbs free energy is G = H - T*S

Total enthalpy                    ...   -304.37694399 Eh
Total entropy correction          ...     -0.03900730 Eh    -24.48 kcal/mol
-----------------------------------------------------------------------
Final Gibbs free energy         ...   -304.41595129 Eh

For completeness - the Gibbs free energy minus the electronic energy
G-E(el)                           ...      0.09686342 Eh     60.78 kcal/mol

                             ****ORCA TERMINATED NORMALLY****
TOTAL RUN TIME: 0 days 0 hours 13 minutes 51 seconds 761 msec
