                         Program Version 5.0.4 -  RELEASE  -
|  1> # ORCA 5.0.4 - /users/bwb16179/postgrad/2024_03/DFT_Crest_Conformers/Opt/deprot/1_deprot_aq_2.inp # write input file
|  2> # Basic Mode
|  3> #
|  4> ! Opt Freq wB97X Def2-SVP D4 SlowConv TightSCF Defgrid2 Def2/J RIJCOSX CPCM(Water)
|  5>
|  6>
|  7>
|  8> %maxcore 4500
|  9>
| 10> %geom
| 11> Maxiter 150
| 12> END
| 13>
| 14> * xyzfile 0 1 1_deprot_aq_2.xyz
| 15>
| 16>                          ****END OF INPUT****
 Total Charge           Charge          ....    0
 Multiplicity           Mult            ....    1
 Number of Electrons    NEL             ....   52
Dispersion correction           -0.001732497
FINAL SINGLE POINT ENERGY      -304.510472799852
Dispersion correction            ... Starting D4
Dispersion correction           -0.001728406
FINAL SINGLE POINT ENERGY      -304.511880571332
Dispersion correction            ... Starting D4
Dispersion correction           -0.001727864
FINAL SINGLE POINT ENERGY      -304.511919905242
Dispersion correction            ... Starting D4
Dispersion correction           -0.001727762
FINAL SINGLE POINT ENERGY      -304.511926841978
Dispersion correction            ... Starting D4
Dispersion correction           -0.001727794
FINAL SINGLE POINT ENERGY      -304.511928001394
Dispersion correction            ... Starting D4
                    ***********************HURRAY********************

CARTESIAN COORDINATES (ANGSTROEM)
---------------------------------
  N     -1.060317   -0.133719    0.000006
  C      0.001976   -0.980965    0.000939
  N      1.062084   -0.128892    0.001234
  C      0.675704    1.200625   -0.000058
  C     -0.680272    1.198490   -0.000693
  C     -2.445022   -0.565332   -0.000169
  C      2.444979   -0.573488   -0.000739
  H     -2.966535   -0.194512   -0.895008
  H     -2.967003   -0.194147    0.894247
  H     -2.464233   -1.661676    0.000032
  H      2.660501   -1.160995   -0.904178
  H      2.651722   -1.192160    0.883552
  H      3.106862    0.302289    0.017605
  H      1.389914    2.022697    0.000044
  H     -1.397846    2.017513   -0.001106

 Multiplicity           Mult            ....    1
 Number of Electrons    NEL             ....   52
 Basis Dimension        Dim             ....  138

ORBITAL ENERGIES
----------------

  NO   OCC          E(Eh)            E(eV)
   0   2.0000     -14.451509      -393.2455
   1   2.0000     -14.450480      -393.2176
   2   2.0000     -10.301096      -280.3071
   3   2.0000     -10.300307      -280.2856
   4   2.0000     -10.295635      -280.1585
   5   2.0000     -10.293142      -280.0906
   6   2.0000     -10.275920      -279.6220
   7   2.0000      -1.147975       -31.2380
   8   2.0000      -1.034452       -28.1489
   9   2.0000      -0.893511       -24.3137
  10   2.0000      -0.845799       -23.0154
  11   2.0000      -0.797567       -21.7029
  12   2.0000      -0.711081       -19.3495
  13   2.0000      -0.679247       -18.4832
  14   2.0000      -0.631602       -17.1868
  15   2.0000      -0.589318       -16.0362
  16   2.0000      -0.557288       -15.1646
  17   2.0000      -0.548236       -14.9183
  18   2.0000      -0.539984       -14.6937
  19   2.0000      -0.537056       -14.6140
  20   2.0000      -0.491424       -13.3723
  21   2.0000      -0.484409       -13.1815
  22   2.0000      -0.482611       -13.1325
  23   2.0000      -0.372099       -10.1253
  24   2.0000      -0.325604        -8.8601
  25   2.0000      -0.324771        -8.8375
  26   0.0000       0.122898         3.3442
  27   0.0000       0.126891         3.4529
  28   0.0000       0.171256         4.6601
  29   0.0000       0.172357         4.6901
  30   0.0000       0.197338         5.3698

MULLIKEN ATOMIC CHARGES
-----------------------
   0 N :   -0.236608
   1 C :   -0.220637
   2 N :   -0.239405
   3 C :    0.018428
   4 C :    0.011145
   5 C :    0.091856
   6 C :    0.093590
   7 H :    0.060605
   8 H :    0.060620
   9 H :    0.051327
  10 H :    0.058947
  11 H :    0.058610
  12 H :    0.060014
  13 H :    0.067616
  14 H :    0.063893
Sum of atomic charges:    0.0000000

LOEWDIN ATOMIC CHARGES
----------------------
   0 N :    0.023330
   1 C :   -0.325384
   2 N :    0.017988
   3 C :   -0.033691
   4 C :   -0.040519
   5 C :    0.030696
   6 C :    0.032398
   7 H :    0.034664
   8 H :    0.034660
   9 H :    0.034783
  10 H :    0.034505
  11 H :    0.034613
  12 H :    0.038454
  13 H :    0.041906
  14 H :    0.041598

  Mayer bond orders larger than 0.100000
B(  0-N ,  1-C ) :   1.2558 B(  0-N ,  4-C ) :   1.1319 B(  0-N ,  5-C ) :   0.9449
B(  1-C ,  2-N ) :   1.2309 B(  2-N ,  3-C ) :   1.1391 B(  2-N ,  6-C ) :   0.9390
B(  3-C ,  4-C ) :   1.6248 B(  3-C , 13-H ) :   0.9882 B(  4-C , 14-H ) :   0.9911
B(  5-C ,  7-H ) :   0.9787 B(  5-C ,  8-H ) :   0.9787 B(  5-C ,  9-H ) :   0.9733
B(  6-C , 10-H ) :   0.9795 B(  6-C , 11-H ) :   0.9793 B(  6-C , 12-H ) :   0.9772

Dispersion correction           -0.001727826
FINAL SINGLE POINT ENERGY      -304.511928112215

DIPOLE MOMENT
-------------
                                X             Y             Z
Electronic contribution:      0.01090       1.45205       0.00329
Nuclear contribution   :      0.01205      -0.02858      -0.00481
                        -----------------------------------------
Total Dipole Moment    :      0.02295       1.42347      -0.00152
                        -----------------------------------------
Magnitude (a.u.)       :      1.42366
Magnitude (Debye)      :      3.61865

Dispersion correction in the Hessian             ... Starting D4

VIBRATIONAL FREQUENCIES
-----------------------

Scaling factor for frequencies =  1.000000000  (already applied!)

   0:         0.00 cm**-1
   1:         0.00 cm**-1
   2:         0.00 cm**-1
   3:         0.00 cm**-1
   4:         0.00 cm**-1
   5:         0.00 cm**-1
   6:       -23.33 cm**-1 ***imaginary mode***
   7:        64.20 cm**-1
   8:       186.93 cm**-1
   9:       285.71 cm**-1
  10:       297.70 cm**-1
  11:       451.63 cm**-1
  12:       632.37 cm**-1
  13:       638.53 cm**-1
  14:       642.61 cm**-1
  15:       743.37 cm**-1
  16:       763.96 cm**-1
  17:       876.88 cm**-1
  18:      1025.27 cm**-1
  19:      1037.61 cm**-1
  20:      1077.26 cm**-1
  21:      1096.71 cm**-1
  22:      1108.50 cm**-1
  23:      1141.82 cm**-1
  24:      1144.07 cm**-1
  25:      1242.20 cm**-1
  26:      1370.81 cm**-1
  27:      1413.47 cm**-1
  28:      1422.85 cm**-1
  29:      1441.19 cm**-1
  30:      1450.20 cm**-1
  31:      1450.27 cm**-1
  32:      1453.93 cm**-1
  33:      1477.46 cm**-1
  34:      1487.52 cm**-1
  35:      1511.17 cm**-1
  36:      1656.59 cm**-1
  37:      3077.14 cm**-1
  38:      3084.28 cm**-1
  39:      3175.41 cm**-1
  40:      3188.98 cm**-1
  41:      3204.61 cm**-1
  42:      3215.32 cm**-1
  43:      3282.45 cm**-1
  44:      3303.41 cm**-1

IR SPECTRUM
-----------

 Mode   freq       eps      Int      T**2         TX        TY        TZ
       cm**-1   L/(mol*cm) km/mol    a.u.
----------------------------------------------------------------------------
  7:     64.20   0.000004    0.02  0.000022  (-0.000034 -0.000043  0.004676)
  8:    186.93   0.005668   28.64  0.009462  (-0.000042  0.000404 -0.097273)
  9:    285.71   0.000010    0.05  0.000011  ( 0.000282 -0.002414 -0.002230)
 10:    297.70   0.001366    6.90  0.001432  ( 0.003957 -0.037631 -0.000207)
 11:    451.63   0.002803   14.17  0.001937  (-0.044001 -0.000976 -0.000062)
 12:    632.37   0.000664    3.35  0.000327  (-0.001325 -0.018046 -0.000145)
 13:    638.53   0.000063    0.32  0.000031  (-0.000223 -0.000463  0.005530)
 14:    642.61   0.000083    0.42  0.000040  ( 0.000294  0.000410  0.006341)
 15:    743.37   0.016215   81.95  0.006807  ( 0.000372  0.000025 -0.082504)
 16:    763.96   0.004390   22.19  0.001793  (-0.042347 -0.000180 -0.000376)
 17:    876.88   0.000012    0.06  0.000004  ( 0.000116 -0.000041 -0.002034)
 18:   1025.27   0.001126    5.69  0.000343  ( 0.018394 -0.002080 -0.000028)
 19:   1037.61   0.000401    2.03  0.000121  (-0.009009  0.006283  0.000071)
 20:   1077.26   0.002967   14.99  0.000859  ( 0.011903 -0.026792 -0.000047)
 21:   1096.71   0.001650    8.34  0.000470  (-0.004466  0.021203  0.000012)
 22:   1108.50   0.001976    9.99  0.000556  ( 0.020360  0.011908 -0.000061)
 23:   1141.82   0.000022    0.11  0.000006  ( 0.001574 -0.000054 -0.001856)
 24:   1144.07   0.000007    0.04  0.000002  (-0.000107  0.000017 -0.001393)
 25:   1242.20   0.009924   50.15  0.002493  (-0.049930 -0.000302 -0.000085)
 26:   1370.81   0.000963    4.87  0.000219  ( 0.014760 -0.001151 -0.000261)
 27:   1413.47   0.000702    3.55  0.000155  ( 0.010634 -0.006454 -0.000553)
 28:   1422.85   0.002753   13.91  0.000604  ( 0.021611 -0.011692  0.000360)
 29:   1441.19   0.003655   18.47  0.000792  (-0.027902 -0.003027  0.001965)
 30:   1450.20   0.001335    6.75  0.000287  ( 0.006816 -0.006689  0.014005)
 31:   1450.27   0.002452   12.39  0.000528  ( 0.006899 -0.006536 -0.020910)
 32:   1453.93   0.003779   19.10  0.000811  ( 0.004705 -0.000727  0.028080)
 33:   1477.46   0.001637    8.27  0.000346  (-0.008755 -0.016400 -0.000466)
 34:   1487.52   0.009858   49.82  0.002068  ( 0.028349  0.035550 -0.000761)
 35:   1511.17   0.013684   69.15  0.002826  (-0.051683  0.012437  0.000123)
 36:   1656.59   0.000137    0.69  0.000026  ( 0.002451 -0.004441 -0.000058)
 37:   3077.14   0.011645   58.85  0.001181  (-0.034327 -0.001615  0.000022)
 38:   3084.28   0.007448   37.64  0.000754  ( 0.025829 -0.009293 -0.000316)
 39:   3175.41   0.003197   16.16  0.000314  ( 0.000006 -0.000005 -0.017727)
 40:   3188.98   0.002644   13.36  0.000259  ( 0.000073  0.000280  0.016082)
 41:   3204.61   0.001430    7.23  0.000139  ( 0.002144  0.011600 -0.000333)
 42:   3215.32   0.000768    3.88  0.000075  (-0.002739  0.008189 -0.000001)
 43:   3282.45   0.001461    7.38  0.000139  ( 0.011784 -0.000126 -0.000002)
 44:   3303.41   0.000185    0.93  0.000017  ( 0.000419 -0.004159 -0.000003)

--------------------------
THERMOCHEMISTRY AT 298.15K
--------------------------

Temperature         ... 298.15 K
Pressure            ... 1.00 atm
Total Mass          ... 96.13 AMU

Throughout the following assumptions are being made:
  (1) The electronic state is orbitally nondegenerate
  (2) There are no thermally accessible electronically excited states
  (3) Hindered rotations indicated by low frequency modes are not
      treated as such but are treated as vibrations and this may
      cause some error
  (4) All equations used are the standard statistical mechanics
      equations for an ideal gas
  (5) All vibrations are strictly harmonic

freq.      64.20  E(vib)   ...       0.51
freq.     186.93  E(vib)   ...       0.36
freq.     285.71  E(vib)   ...       0.28
freq.     297.70  E(vib)   ...       0.27
freq.     451.63  E(vib)   ...       0.16
freq.     632.37  E(vib)   ...       0.09
freq.     638.53  E(vib)   ...       0.09
freq.     642.61  E(vib)   ...       0.09
freq.     743.37  E(vib)   ...       0.06
freq.     763.96  E(vib)   ...       0.06
freq.     876.88  E(vib)   ...       0.04
freq.    1025.27  E(vib)   ...       0.02
freq.    1037.61  E(vib)   ...       0.02
freq.    1077.26  E(vib)   ...       0.02
freq.    1096.71  E(vib)   ...       0.02
freq.    1108.50  E(vib)   ...       0.02
freq.    1141.82  E(vib)   ...       0.01
freq.    1144.07  E(vib)   ...       0.01
freq.    1242.20  E(vib)   ...       0.01
freq.    1370.81  E(vib)   ...       0.01
freq.    1413.47  E(vib)   ...       0.00
freq.    1422.85  E(vib)   ...       0.00
freq.    1441.19  E(vib)   ...       0.00
freq.    1450.20  E(vib)   ...       0.00
freq.    1450.27  E(vib)   ...       0.00
freq.    1453.93  E(vib)   ...       0.00
freq.    1477.46  E(vib)   ...       0.00
freq.    1487.52  E(vib)   ...       0.00
freq.    1511.17  E(vib)   ...       0.00
freq.    1656.59  E(vib)   ...       0.00
freq.    3077.14  E(vib)   ...       0.00
freq.    3084.28  E(vib)   ...       0.00
freq.    3175.41  E(vib)   ...       0.00
freq.    3188.98  E(vib)   ...       0.00
freq.    3204.61  E(vib)   ...       0.00
freq.    3215.32  E(vib)   ...       0.00
freq.    3282.45  E(vib)   ...       0.00
freq.    3303.41  E(vib)   ...       0.00

------------
INNER ENERGY
------------

The inner energy is: U= E(el) + E(ZPE) + E(vib) + E(rot) + E(trans)
    E(el)   - is the total energy from the electronic structure calculation
              = E(kin-el) + E(nuc-el) + E(el-el) + E(nuc-nuc)
    E(ZPE)  - the the zero temperature vibrational energy from the frequency calculation
    E(vib)  - the the finite temperature correction to E(ZPE) due to population
              of excited vibrational states
    E(rot)  - is the rotational thermal energy
    E(trans)- is the translational thermal energy

Summary of contributions to the inner energy U:
Electronic energy                ...   -304.51192811 Eh
Zero point energy                ...      0.12786077 Eh      80.23 kcal/mol
Thermal vibrational correction   ...      0.00343908 Eh       2.16 kcal/mol
Thermal rotational correction    ...      0.00141627 Eh       0.89 kcal/mol
Thermal translational correction ...      0.00141627 Eh       0.89 kcal/mol
-----------------------------------------------------------------------
Total thermal energy                   -304.37779572 Eh

Summary of corrections to the electronic energy:
(perhaps to be used in another calculation)
Total thermal correction                  0.00627162 Eh       3.94 kcal/mol
Non-thermal (ZPE) correction              0.12786077 Eh      80.23 kcal/mol
-----------------------------------------------------------------------
Total correction                          0.13413239 Eh      84.17 kcal/mol

--------
ENTHALPY
--------

The enthalpy is H = U + kB*T
                kB is Boltzmann's constant
Total free energy                 ...   -304.37779572 Eh
Thermal Enthalpy correction       ...      0.00094421 Eh       0.59 kcal/mol
-----------------------------------------------------------------------
Total Enthalpy                    ...   -304.37685151 Eh

Note: Only C1 symmetry has been detected, increase convergence thresholds
      if your molecule has a higher symmetry. Symmetry factor of 1.0 is
      used for the rotational entropy correction.

Note: Rotational entropy computed according to Herzberg
Infrared and Raman Spectra, Chapter V,1, Van Nostrand Reinhold, 1945
Point Group:  C1, Symmetry Number:   1
Rotational constants in cm-1:     0.235478     0.069904     0.055037

Vibrational entropy computed according to the QRRHO of S. Grimme
Chem.Eur.J. 2012 18 9955

-------
ENTROPY
-------

The entropy contributions are T*S = T*(S(el)+S(vib)+S(rot)+S(trans))
     S(el)   - electronic entropy
     S(vib)  - vibrational entropy
     S(rot)  - rotational entropy
     S(trans)- translational entropy
The entropies will be listed as multiplied by the temperature to get
units of energy

Electronic entropy                ...      0.00000000 Eh      0.00 kcal/mol
Vibrational entropy               ...      0.00565481 Eh      3.55 kcal/mol
Rotational entropy                ...      0.01281852 Eh      8.04 kcal/mol
Translational entropy             ...      0.01881539 Eh     11.81 kcal/mol
-----------------------------------------------------------------------
Final entropy term                ...      0.03728871 Eh     23.40 kcal/mol

In case the symmetry of your molecule has not been determined correctly
or in case you have a reason to use a different symmetry number we print
out the resulting rotational entropy values for sn=1,12 :
 --------------------------------------------------------
|  sn= 1 | S(rot)=       0.01281852 Eh      8.04 kcal/mol|
|  sn= 2 | S(rot)=       0.01216406 Eh      7.63 kcal/mol|
|  sn= 3 | S(rot)=       0.01178123 Eh      7.39 kcal/mol|
|  sn= 4 | S(rot)=       0.01150960 Eh      7.22 kcal/mol|
|  sn= 5 | S(rot)=       0.01129892 Eh      7.09 kcal/mol|
|  sn= 6 | S(rot)=       0.01112677 Eh      6.98 kcal/mol|
|  sn= 7 | S(rot)=       0.01098123 Eh      6.89 kcal/mol|
|  sn= 8 | S(rot)=       0.01085515 Eh      6.81 kcal/mol|
|  sn= 9 | S(rot)=       0.01074394 Eh      6.74 kcal/mol|
|  sn=10 | S(rot)=       0.01064446 Eh      6.68 kcal/mol|
|  sn=11 | S(rot)=       0.01055447 Eh      6.62 kcal/mol|
|  sn=12 | S(rot)=       0.01047232 Eh      6.57 kcal/mol|
 --------------------------------------------------------

-------------------
GIBBS FREE ENERGY
-------------------

The Gibbs free energy is G = H - T*S

Total enthalpy                    ...   -304.37685151 Eh
Total entropy correction          ...     -0.03728871 Eh    -23.40 kcal/mol
-----------------------------------------------------------------------
Final Gibbs free energy         ...   -304.41414022 Eh

                             ****ORCA TERMINATED NORMALLY****
TOTAL RUN TIME: 0 days 0 hours 15 minutes 4 seconds 854 msec
