                         Program Version 5.0.4 -  RELEASE  -
|  1> # ORCA 5.0.4 - /users/bwb16179/postgrad/2024_03/DFT_Crest_Conformers/Opt/prot/1_prot_aq_2.inp # write input file
|  2> # Basic Mode
|  3> #
|  4> ! Opt Freq wB97X Def2-SVP D4 SlowConv TightSCF Defgrid2 Def2/J RIJCOSX CPCM(Water)
|  5>
|  6>
|  7>
|  8> %maxcore 4500
|  9>
| 10> %geom
| 11> Maxiter 150
| 12> END
| 13>
| 14> * xyzfile 1 1 1_prot_aq_2.xyz
| 15>
| 16>                          ****END OF INPUT****
 Total Charge           Charge          ....    1
 Multiplicity           Mult            ....    1
 Number of Electrons    NEL             ....   52
Dispersion correction           -0.001655747
FINAL SINGLE POINT ENERGY      -305.013189559071
Dispersion correction            ... Starting D4
Dispersion correction           -0.001653065
FINAL SINGLE POINT ENERGY      -305.015155878749
Dispersion correction            ... Starting D4
Dispersion correction           -0.001652681
FINAL SINGLE POINT ENERGY      -305.015306077788
Dispersion correction            ... Starting D4
FINAL SINGLE POINT ENERGY      -305.015360551657
FINAL SINGLE POINT ENERGY      -305.015370994388
FINAL SINGLE POINT ENERGY      -305.015382738659
FINAL SINGLE POINT ENERGY      -305.015404726988
FINAL SINGLE POINT ENERGY      -305.015441777624
FINAL SINGLE POINT ENERGY      -305.015530130810
FINAL SINGLE POINT ENERGY      -305.015601393625
FINAL SINGLE POINT ENERGY      -305.015760117626
FINAL SINGLE POINT ENERGY      -305.015760857847
FINAL SINGLE POINT ENERGY      -305.015761522962
FINAL SINGLE POINT ENERGY      -305.015762112308
FINAL SINGLE POINT ENERGY      -305.015762580211
FINAL SINGLE POINT ENERGY      -305.015762959406
FINAL SINGLE POINT ENERGY      -305.015763214153
Dispersion correction           -0.001653092
FINAL SINGLE POINT ENERGY      -305.015763398952
Dispersion correction            ... Starting D4
Dispersion correction           -0.001653097
FINAL SINGLE POINT ENERGY      -305.015763476846
Dispersion correction            ... Starting D4
                    ***********************HURRAY********************

CARTESIAN COORDINATES (ANGSTROEM)
---------------------------------
  N     -1.081903   -0.099582    0.022385
  C      0.000178   -0.872888    0.074286
  N      1.082292   -0.103726   -0.011903
  H      0.000340   -1.958475    0.175621
  C      0.681607    1.209633   -0.121518
  C     -0.679219    1.211489   -0.107238
  C     -2.462986   -0.567671    0.014918
  C      2.465757   -0.560919    0.048818
  H     -3.078544    0.153282    0.566508
  H     -2.516146   -1.539971    0.518052
  H     -2.828961   -0.648359   -1.016824
  H      2.918536   -0.233523    0.993568
  H      3.019909   -0.136721   -0.797569
  H      2.482252   -1.655198   -0.010867
  H      1.401433    2.021924   -0.201194
  H     -1.397863    2.026496   -0.167350

 Multiplicity           Mult            ....    1
 Number of Electrons    NEL             ....   52
 Basis Dimension        Dim             ....  143

ORBITAL ENERGIES
----------------

  NO   OCC          E(Eh)            E(eV)
   0   2.0000     -14.515847      -394.9963
   1   2.0000     -14.515445      -394.9853
   2   2.0000     -10.385690      -282.6090
   3   2.0000     -10.335875      -281.2535
   4   2.0000     -10.335088      -281.2320
   5   2.0000     -10.327878      -281.0359
   6   2.0000     -10.327581      -281.0278
   7   2.0000      -1.218585       -33.1594
   8   2.0000      -1.095161       -29.8008
   9   2.0000      -0.938962       -25.5505
  10   2.0000      -0.902530       -24.5591
  11   2.0000      -0.837566       -22.7913
  12   2.0000      -0.773934       -21.0598
  13   2.0000      -0.739360       -20.1190
  14   2.0000      -0.684089       -18.6150
  15   2.0000      -0.641615       -17.4592
  16   2.0000      -0.600353       -16.3364
  17   2.0000      -0.591718       -16.1015
  18   2.0000      -0.582012       -15.8374
  19   2.0000      -0.579685       -15.7740
  20   2.0000      -0.569639       -15.5007
  21   2.0000      -0.522782       -14.2256
  22   2.0000      -0.519418       -14.1341
  23   2.0000      -0.516826       -14.0636
  24   2.0000      -0.419442       -11.4136
  25   2.0000      -0.377543       -10.2735
  26   0.0000       0.060390         1.6433
  27   0.0000       0.091675         2.4946
  28   0.0000       0.153634         4.1806
  29   0.0000       0.161727         4.4008
  30   0.0000       0.179284         4.8786

MULLIKEN ATOMIC CHARGES
-----------------------
   0 N :   -0.223097
   1 C :    0.224330
   2 N :   -0.220502
   3 H :    0.142254
   4 C :    0.066188
   5 C :    0.067749
   6 C :    0.076799
   7 C :    0.077300
   8 H :    0.093225
   9 H :    0.094256
  10 H :    0.100892
  11 H :    0.098835
  12 H :    0.096212
  13 H :    0.093361
  14 H :    0.105753
  15 H :    0.106444
Sum of atomic charges:    1.0000000

LOEWDIN ATOMIC CHARGES
----------------------
   0 N :    0.092183
   1 C :    0.129319
   2 N :    0.093788
   3 H :    0.072892
   4 C :    0.020724
   5 C :    0.021854
   6 C :    0.057115
   7 C :    0.057684
   8 H :    0.054760
   9 H :    0.055628
  10 H :    0.053314
  11 H :    0.053787
  12 H :    0.054463
  13 H :    0.055611
  14 H :    0.063476
  15 H :    0.063403

  Mayer bond orders larger than 0.100000
B(  0-N ,  1-C ) :   1.3566 B(  0-N ,  5-C ) :   1.1736 B(  0-N ,  6-C ) :   0.8959
B(  1-C ,  2-N ) :   1.3604 B(  1-C ,  3-H ) :   0.9667 B(  2-N ,  4-C ) :   1.1727
B(  2-N ,  7-C ) :   0.8963 B(  4-C ,  5-C ) :   1.6055 B(  4-C , 14-H ) :   0.9866
B(  5-C , 15-H ) :   0.9858 B(  6-C ,  8-H ) :   0.9733 B(  6-C ,  9-H ) :   0.9725
B(  6-C , 10-H ) :   0.9746 B(  7-C , 11-H ) :   0.9742 B(  7-C , 12-H ) :   0.9735
B(  7-C , 13-H ) :   0.9721

Dispersion correction           -0.001653099
FINAL SINGLE POINT ENERGY      -305.015763509451

DIPOLE MOMENT
-------------
                                X             Y             Z
Electronic contribution:      0.00759       1.35829      -0.08858
Nuclear contribution   :     -0.00524      -1.86779       0.13311
                        -----------------------------------------
Total Dipole Moment    :      0.00235      -0.50950       0.04453
                        -----------------------------------------
Magnitude (a.u.)       :      0.51145
Magnitude (Debye)      :      1.30001

Dispersion correction in the Hessian             ... Starting D4

VIBRATIONAL FREQUENCIES
-----------------------

Scaling factor for frequencies =  1.000000000  (already applied!)

   0:         0.00 cm**-1
   1:         0.00 cm**-1
   2:         0.00 cm**-1
   3:         0.00 cm**-1
   4:         0.00 cm**-1
   5:         0.00 cm**-1
   6:        54.63 cm**-1
   7:        69.72 cm**-1
   8:       185.58 cm**-1
   9:       276.67 cm**-1
  10:       281.16 cm**-1
  11:       423.28 cm**-1
  12:       624.87 cm**-1
  13:       645.35 cm**-1
  14:       647.78 cm**-1
  15:       740.80 cm**-1
  16:       768.36 cm**-1
  17:       886.39 cm**-1
  18:       911.88 cm**-1
  19:      1050.96 cm**-1
  20:      1055.92 cm**-1
  21:      1097.04 cm**-1
  22:      1103.49 cm**-1
  23:      1119.44 cm**-1
  24:      1142.02 cm**-1
  25:      1148.82 cm**-1
  26:      1206.96 cm**-1
  27:      1284.53 cm**-1
  28:      1409.65 cm**-1
  29:      1433.50 cm**-1
  30:      1436.67 cm**-1
  31:      1444.82 cm**-1
  32:      1447.09 cm**-1
  33:      1449.56 cm**-1
  34:      1456.62 cm**-1
  35:      1495.91 cm**-1
  36:      1515.27 cm**-1
  37:      1660.33 cm**-1
  38:      1670.97 cm**-1
  39:      3102.62 cm**-1
  40:      3105.50 cm**-1
  41:      3221.95 cm**-1
  42:      3222.08 cm**-1
  43:      3233.20 cm**-1
  44:      3237.64 cm**-1
  45:      3300.70 cm**-1
  46:      3301.70 cm**-1
  47:      3318.81 cm**-1

IR SPECTRUM
-----------

 Mode   freq       eps      Int      T**2         TX        TY        TZ
       cm**-1   L/(mol*cm) km/mol    a.u.
----------------------------------------------------------------------------
  6:     54.63   0.000001    0.00  0.000005  (-0.000947  0.000200 -0.002001)
  7:     69.72   0.000011    0.06  0.000051  (-0.000439 -0.000327 -0.007137)
  8:    185.58   0.001408    7.11  0.002367  ( 0.004013 -0.004853 -0.048243)
  9:    276.67   0.000113    0.57  0.000127  ( 0.002262  0.011040 -0.000169)
 10:    281.16   0.000102    0.52  0.000113  ( 0.000861 -0.010295  0.002528)
 11:    423.28   0.000050    0.25  0.000037  (-0.005885  0.000319 -0.001537)
 12:    624.87   0.000268    1.35  0.000134  ( 0.000417  0.010038 -0.005740)
 13:    645.35   0.010156   51.33  0.004911  (-0.003837  0.006726  0.069651)
 14:    647.78   0.000156    0.79  0.000075  (-0.000598  0.001588 -0.008495)
 15:    740.80   0.000982    4.96  0.000414  ( 0.017577  0.000661  0.010216)
 16:    768.36   0.010259   51.84  0.004167  (-0.001981 -0.005172 -0.064311)
 17:    886.39   0.005764   29.13  0.002029  (-0.003467 -0.004920 -0.044643)
 18:    911.88   0.000026    0.13  0.000009  ( 0.002589  0.000393 -0.001409)
 19:   1050.96   0.001454    7.35  0.000432  ( 0.020771  0.000241 -0.000566)
 20:   1055.92   0.000584    2.95  0.000173  (-0.000933  0.012861 -0.002541)
 21:   1097.04   0.003315   16.75  0.000943  ( 0.004845  0.030153 -0.003222)
 22:   1103.49   0.002548   12.88  0.000721  ( 0.026778 -0.001599  0.000987)
 23:   1119.44   0.000269    1.36  0.000075  ( 0.002276 -0.008181  0.001708)
 24:   1142.02   0.000470    2.37  0.000128  ( 0.010698  0.000496  0.003700)
 25:   1148.82   0.000708    3.58  0.000192  (-0.010699 -0.000402 -0.008807)
 26:   1206.96   0.022470  113.55  0.005810  ( 0.076220  0.000402 -0.000081)
 27:   1284.53   0.000281    1.42  0.000068  (-0.008241  0.000431  0.000481)
 28:   1409.65   0.000066    0.33  0.000015  ( 0.000891 -0.003562 -0.001060)
 29:   1433.50   0.002021   10.21  0.000440  (-0.019442  0.003397  0.007104)
 30:   1436.67   0.002784   14.07  0.000605  ( 0.024276  0.000423 -0.003906)
 31:   1444.82   0.001569    7.93  0.000339  ( 0.000797 -0.002198 -0.018262)
 32:   1447.09   0.002781   14.05  0.000600  ( 0.002853 -0.001962  0.024244)
 33:   1449.56   0.006033   30.49  0.001299  (-0.000600 -0.019436 -0.030342)
 34:   1456.62   0.008706   44.00  0.001865  (-0.001544 -0.040677  0.014429)
 35:   1495.91   0.000180    0.91  0.000038  (-0.005530  0.000136 -0.002645)
 36:   1515.27   0.001343    6.79  0.000277  ( 0.001711 -0.016445  0.001800)
 37:   1660.33   0.003102   15.68  0.000583  (-0.013056  0.020169 -0.002404)
 38:   1670.97   0.026069  131.74  0.004869  ( 0.069660  0.003954  0.000697)
 39:   3102.62   0.002539   12.83  0.000255  ( 0.015589 -0.003294  0.001237)
 40:   3105.50   0.002176   10.99  0.000219  (-0.014253 -0.003740 -0.001222)
 41:   3221.95   0.000022    0.11  0.000002  (-0.000681  0.000286  0.001255)
 42:   3222.08   0.000053    0.27  0.000005  ( 0.000116 -0.000345 -0.002231)
 43:   3233.20   0.000010    0.05  0.000001  (-0.000898  0.000404  0.000081)
 44:   3237.64   0.000001    0.01  0.000000  ( 0.000365  0.000065  0.000010)
 45:   3300.70   0.005427   27.43  0.000513  (-0.022650 -0.000006  0.000281)
 46:   3301.70   0.012211   61.71  0.001154  (-0.000122 -0.033814  0.003278)
 47:   3318.81   0.002531   12.79  0.000238  ( 0.000096  0.015368 -0.001332)

--------------------------
THERMOCHEMISTRY AT 298.15K
--------------------------

Temperature         ... 298.15 K
Pressure            ... 1.00 atm
Total Mass          ... 97.14 AMU

Throughout the following assumptions are being made:
  (1) The electronic state is orbitally nondegenerate
  (2) There are no thermally accessible electronically excited states
  (3) Hindered rotations indicated by low frequency modes are not
      treated as such but are treated as vibrations and this may
      cause some error
  (4) All equations used are the standard statistical mechanics
      equations for an ideal gas
  (5) All vibrations are strictly harmonic

freq.      54.63  E(vib)   ...       0.52
freq.      69.72  E(vib)   ...       0.50
freq.     185.58  E(vib)   ...       0.37
freq.     276.67  E(vib)   ...       0.28
freq.     281.16  E(vib)   ...       0.28
freq.     423.28  E(vib)   ...       0.18
freq.     624.87  E(vib)   ...       0.09
freq.     645.35  E(vib)   ...       0.09
freq.     647.78  E(vib)   ...       0.09
freq.     740.80  E(vib)   ...       0.06
freq.     768.36  E(vib)   ...       0.06
freq.     886.39  E(vib)   ...       0.04
freq.     911.88  E(vib)   ...       0.03
freq.    1050.96  E(vib)   ...       0.02
freq.    1055.92  E(vib)   ...       0.02
freq.    1097.04  E(vib)   ...       0.02
freq.    1103.49  E(vib)   ...       0.02
freq.    1119.44  E(vib)   ...       0.01
freq.    1142.02  E(vib)   ...       0.01
freq.    1148.82  E(vib)   ...       0.01
freq.    1206.96  E(vib)   ...       0.01
freq.    1284.53  E(vib)   ...       0.01
freq.    1409.65  E(vib)   ...       0.00
freq.    1433.50  E(vib)   ...       0.00
freq.    1436.67  E(vib)   ...       0.00
freq.    1444.82  E(vib)   ...       0.00
freq.    1447.09  E(vib)   ...       0.00
freq.    1449.56  E(vib)   ...       0.00
freq.    1456.62  E(vib)   ...       0.00
freq.    1495.91  E(vib)   ...       0.00
freq.    1515.27  E(vib)   ...       0.00
freq.    1660.33  E(vib)   ...       0.00
freq.    1670.97  E(vib)   ...       0.00
freq.    3102.62  E(vib)   ...       0.00
freq.    3105.50  E(vib)   ...       0.00
freq.    3221.95  E(vib)   ...       0.00
freq.    3222.08  E(vib)   ...       0.00
freq.    3233.20  E(vib)   ...       0.00
freq.    3237.64  E(vib)   ...       0.00
freq.    3300.70  E(vib)   ...       0.00
freq.    3301.70  E(vib)   ...       0.00
freq.    3318.81  E(vib)   ...       0.00

------------
INNER ENERGY
------------

The inner energy is: U= E(el) + E(ZPE) + E(vib) + E(rot) + E(trans)
    E(el)   - is the total energy from the electronic structure calculation
              = E(kin-el) + E(nuc-el) + E(el-el) + E(nuc-nuc)
    E(ZPE)  - the the zero temperature vibrational energy from the frequency calculation
    E(vib)  - the the finite temperature correction to E(ZPE) due to population
              of excited vibrational states
    E(rot)  - is the rotational thermal energy
    E(trans)- is the translational thermal energy

Summary of contributions to the inner energy U:
Electronic energy                ...   -305.01576351 Eh
Zero point energy                ...      0.14167981 Eh      88.91 kcal/mol
Thermal vibrational correction   ...      0.00435932 Eh       2.74 kcal/mol
Thermal rotational correction    ...      0.00141627 Eh       0.89 kcal/mol
Thermal translational correction ...      0.00141627 Eh       0.89 kcal/mol
-----------------------------------------------------------------------
Total thermal energy                   -304.86689184 Eh

Summary of corrections to the electronic energy:
(perhaps to be used in another calculation)
Total thermal correction                  0.00719186 Eh       4.51 kcal/mol
Non-thermal (ZPE) correction              0.14167981 Eh      88.91 kcal/mol
-----------------------------------------------------------------------
Total correction                          0.14887167 Eh      93.42 kcal/mol

--------
ENTHALPY
--------

The enthalpy is H = U + kB*T
                kB is Boltzmann's constant
Total free energy                 ...   -304.86689184 Eh
Thermal Enthalpy correction       ...      0.00094421 Eh       0.59 kcal/mol
-----------------------------------------------------------------------
Total Enthalpy                    ...   -304.86594763 Eh

Note: Only C1 symmetry has been detected, increase convergence thresholds
      if your molecule has a higher symmetry. Symmetry factor of 1.0 is
      used for the rotational entropy correction.

Note: Rotational entropy computed according to Herzberg
Infrared and Raman Spectra, Chapter V,1, Van Nostrand Reinhold, 1945
Point Group:  C1, Symmetry Number:   1
Rotational constants in cm-1:     0.228180     0.068797     0.053970

Vibrational entropy computed according to the QRRHO of S. Grimme
Chem.Eur.J. 2012 18 9955

-------
ENTROPY
-------

The entropy contributions are T*S = T*(S(el)+S(vib)+S(rot)+S(trans))
     S(el)   - electronic entropy
     S(vib)  - vibrational entropy
     S(rot)  - rotational entropy
     S(trans)- translational entropy
The entropies will be listed as multiplied by the temperature to get
units of energy

Electronic entropy                ...      0.00000000 Eh      0.00 kcal/mol
Vibrational entropy               ...      0.00749596 Eh      4.70 kcal/mol
Rotational entropy                ...      0.01285017 Eh      8.06 kcal/mol
Translational entropy             ...      0.01883016 Eh     11.82 kcal/mol
-----------------------------------------------------------------------
Final entropy term                ...      0.03917629 Eh     24.58 kcal/mol

In case the symmetry of your molecule has not been determined correctly
or in case you have a reason to use a different symmetry number we print
out the resulting rotational entropy values for sn=1,12 :
 --------------------------------------------------------
|  sn= 1 | S(rot)=       0.01285017 Eh      8.06 kcal/mol|
|  sn= 2 | S(rot)=       0.01219571 Eh      7.65 kcal/mol|
|  sn= 3 | S(rot)=       0.01181288 Eh      7.41 kcal/mol|
|  sn= 4 | S(rot)=       0.01154125 Eh      7.24 kcal/mol|
|  sn= 5 | S(rot)=       0.01133057 Eh      7.11 kcal/mol|
|  sn= 6 | S(rot)=       0.01115842 Eh      7.00 kcal/mol|
|  sn= 7 | S(rot)=       0.01101288 Eh      6.91 kcal/mol|
|  sn= 8 | S(rot)=       0.01088680 Eh      6.83 kcal/mol|
|  sn= 9 | S(rot)=       0.01077559 Eh      6.76 kcal/mol|
|  sn=10 | S(rot)=       0.01067611 Eh      6.70 kcal/mol|
|  sn=11 | S(rot)=       0.01058612 Eh      6.64 kcal/mol|
|  sn=12 | S(rot)=       0.01050397 Eh      6.59 kcal/mol|
 --------------------------------------------------------

-------------------
GIBBS FREE ENERGY
-------------------

The Gibbs free energy is G = H - T*S

                             ****ORCA TERMINATED NORMALLY****
TOTAL RUN TIME: 0 days 1 hours 15 minutes 50 seconds 513 msec
