                         Program Version 5.0.4 -  RELEASE  -
|  1> # ORCA 5.0.4 - /users/bwb16179/postgrad/2024_03/DFT_Crest_Conformers/Opt/prot/1_prot_aq_1.inp # write input file
|  2> # Basic Mode
|  3> #
|  4> ! Opt Freq wB97X Def2-SVP D4 SlowConv TightSCF Defgrid2 Def2/J RIJCOSX CPCM(Water)
|  5>
|  6>
|  7>
|  8> %maxcore 4500
|  9>
| 10> %geom
| 11> Maxiter 150
| 12> END
| 13>
| 14> * xyzfile 1 1 1_prot_aq_1.xyz
| 15>
| 16>                          ****END OF INPUT****
 Total Charge           Charge          ....    1
 Multiplicity           Mult            ....    1
 Number of Electrons    NEL             ....   52
Dispersion correction           -0.001655783
FINAL SINGLE POINT ENERGY      -305.013846809496
Dispersion correction            ... Starting D4
Dispersion correction           -0.001653205
FINAL SINGLE POINT ENERGY      -305.015770387415
Dispersion correction            ... Starting D4
Dispersion correction           -0.001652860
FINAL SINGLE POINT ENERGY      -305.015910185873
Dispersion correction            ... Starting D4
Dispersion correction           -0.001652867
FINAL SINGLE POINT ENERGY      -305.015955390677
Dispersion correction            ... Starting D4
Dispersion correction           -0.001652947
FINAL SINGLE POINT ENERGY      -305.015959289380
Dispersion correction            ... Starting D4
                    ***********************HURRAY********************

CARTESIAN COORDINATES (ANGSTROEM)
---------------------------------
  N     -1.082461   -0.100135    0.000100
  C     -0.000002   -0.873845    0.000040
  N      1.082457   -0.100137   -0.000078
  H     -0.000005   -1.964279    0.000140
  C      0.680317    1.217569   -0.000124
  C     -0.680319    1.217570   -0.000012
  C     -2.466616   -0.561379   -0.000184
  C      2.466612   -0.561381   -0.000001
  H     -2.971399   -0.190385   -0.901072
  H     -2.973855   -0.183161    0.896289
  H     -2.474958   -1.657297    0.004297
  H      2.474951   -1.657307   -0.000198
  H      2.972532   -0.186929    0.898807
  H      2.972716   -0.186611   -0.898570
  H      1.395225    2.037904   -0.000156
  H     -1.395223    2.037909    0.000050

 Multiplicity           Mult            ....    1
 Number of Electrons    NEL             ....   52
 Basis Dimension        Dim             ....  143

ORBITAL ENERGIES
----------------

  NO   OCC          E(Eh)            E(eV)
   0   2.0000     -14.515586      -394.9892
   1   2.0000     -14.515571      -394.9888
   2   2.0000     -10.386262      -282.6246
   3   2.0000     -10.335547      -281.2445
   4   2.0000     -10.334968      -281.2288
   5   2.0000     -10.328020      -281.0397
   6   2.0000     -10.327996      -281.0391
   7   2.0000      -1.218538       -33.1581
   8   2.0000      -1.095053       -29.7979
   9   2.0000      -0.938976       -25.5508
  10   2.0000      -0.902537       -24.5593
  11   2.0000      -0.837696       -22.7949
  12   2.0000      -0.773688       -21.0531
  13   2.0000      -0.739885       -20.1333
  14   2.0000      -0.683912       -18.6102
  15   2.0000      -0.641498       -17.4561
  16   2.0000      -0.600655       -16.3447
  17   2.0000      -0.591442       -16.0940
  18   2.0000      -0.582166       -15.8415
  19   2.0000      -0.579921       -15.7804
  20   2.0000      -0.569124       -15.4867
  21   2.0000      -0.523626       -14.2486
  22   2.0000      -0.519675       -14.1411
  23   2.0000      -0.517066       -14.0701
  24   2.0000      -0.419008       -11.4018
  25   2.0000      -0.377841       -10.2816
  26   0.0000       0.062389         1.6977
  27   0.0000       0.090642         2.4665
  28   0.0000       0.153450         4.1756
  29   0.0000       0.161041         4.3822
  30   0.0000       0.176917         4.8142

MULLIKEN ATOMIC CHARGES
-----------------------
   0 N :   -0.222035
   1 C :    0.221542
   2 N :   -0.222034
   3 H :    0.143751
   4 C :    0.067941
   5 C :    0.067940
   6 C :    0.078076
   7 C :    0.078077
   8 H :    0.097409
   9 H :    0.097337
  10 H :    0.093118
  11 H :    0.093118
  12 H :    0.097375
  13 H :    0.097370
  14 H :    0.105507
  15 H :    0.105507
Sum of atomic charges:    1.0000000

LOEWDIN ATOMIC CHARGES
----------------------
   0 N :    0.092533
   1 C :    0.128475
   2 N :    0.092534
   3 H :    0.072857
   4 C :    0.021717
   5 C :    0.021717
   6 C :    0.058060
   7 C :    0.058060
   8 H :    0.053987
   9 H :    0.054009
  10 H :    0.055602
  11 H :    0.055602
  12 H :    0.053997
  13 H :    0.053999
  14 H :    0.063425
  15 H :    0.063425

  Mayer bond orders larger than 0.100000
B(  0-N ,  1-C ) :   1.3593 B(  0-N ,  5-C ) :   1.1716 B(  0-N ,  6-C ) :   0.8959
B(  1-C ,  2-N ) :   1.3593 B(  1-C ,  3-H ) :   0.9654 B(  2-N ,  4-C ) :   1.1716
B(  2-N ,  7-C ) :   0.8959 B(  4-C ,  5-C ) :   1.6083 B(  4-C , 14-H ) :   0.9868
B(  5-C , 15-H ) :   0.9868 B(  6-C ,  8-H ) :   0.9740 B(  6-C ,  9-H ) :   0.9740
B(  6-C , 10-H ) :   0.9720 B(  7-C , 11-H ) :   0.9720 B(  7-C , 12-H ) :   0.9740
B(  7-C , 13-H ) :   0.9740

Dispersion correction           -0.001652990
FINAL SINGLE POINT ENERGY      -305.015959834805

DIPOLE MOMENT
-------------
                                X             Y             Z
Electronic contribution:      0.00000       1.36347       0.00017
Nuclear contribution   :      0.00000      -1.87389      -0.00008
                        -----------------------------------------
Total Dipole Moment    :      0.00000      -0.51042       0.00008
                        -----------------------------------------
Magnitude (a.u.)       :      0.51042
Magnitude (Debye)      :      1.29738

Dispersion correction in the Hessian             ... Starting D4

VIBRATIONAL FREQUENCIES
-----------------------

Scaling factor for frequencies =  1.000000000  (already applied!)

   0:         0.00 cm**-1
   1:         0.00 cm**-1
   2:         0.00 cm**-1
   3:         0.00 cm**-1
   4:         0.00 cm**-1
   5:         0.00 cm**-1
   6:       -33.27 cm**-1 ***imaginary mode***
   7:       -32.51 cm**-1 ***imaginary mode***
   8:       183.73 cm**-1
   9:       273.83 cm**-1
  10:       275.53 cm**-1
  11:       419.58 cm**-1
  12:       623.47 cm**-1
  13:       643.58 cm**-1
  14:       644.22 cm**-1
  15:       738.65 cm**-1
  16:       760.86 cm**-1
  17:       882.90 cm**-1
  18:       907.04 cm**-1
  19:      1048.73 cm**-1
  20:      1053.82 cm**-1
  21:      1095.10 cm**-1
  22:      1100.26 cm**-1
  23:      1117.13 cm**-1
  24:      1141.09 cm**-1
  25:      1146.33 cm**-1
  26:      1205.17 cm**-1
  27:      1281.40 cm**-1
  28:      1406.60 cm**-1
  29:      1433.27 cm**-1
  30:      1435.78 cm**-1
  31:      1442.87 cm**-1
  32:      1443.10 cm**-1
  33:      1443.87 cm**-1
  34:      1455.94 cm**-1
  35:      1495.48 cm**-1
  36:      1514.59 cm**-1
  37:      1662.25 cm**-1
  38:      1671.91 cm**-1
  39:      3102.63 cm**-1
  40:      3102.89 cm**-1
  41:      3222.78 cm**-1
  42:      3222.81 cm**-1
  43:      3233.31 cm**-1
  44:      3233.36 cm**-1
  45:      3300.77 cm**-1
  46:      3301.23 cm**-1
  47:      3319.27 cm**-1

IR SPECTRUM
-----------

 Mode   freq       eps      Int      T**2         TX        TY        TZ
       cm**-1   L/(mol*cm) km/mol    a.u.
----------------------------------------------------------------------------
  8:    183.73   0.001480    7.48  0.002515  ( 0.000011  0.000023 -0.050146)
  9:    273.83   0.000000    0.00  0.000000  ( 0.000013  0.000509 -0.000004)
 10:    275.53   0.000188    0.95  0.000213  ( 0.000000 -0.014601 -0.000020)
 11:    419.58   0.000073    0.37  0.000054  ( 0.007350 -0.000000  0.000011)
 12:    623.47   0.000219    1.10  0.000109  (-0.000000 -0.010461  0.000081)
 13:    643.58   0.010534   53.23  0.005108  ( 0.000017 -0.000014 -0.071468)
 14:    644.22   0.000000    0.00  0.000000  ( 0.000018 -0.000027 -0.000042)
 15:    738.65   0.000840    4.25  0.000355  ( 0.018841  0.000000  0.000100)
 16:    760.86   0.010181   51.45  0.004176  (-0.000003 -0.000006  0.064619)
 17:    882.90   0.005836   29.49  0.002063  (-0.000004 -0.000012 -0.045416)
 18:    907.04   0.000000    0.00  0.000000  ( 0.000004  0.000005  0.000000)
 19:   1048.73   0.001169    5.91  0.000348  (-0.018651 -0.000001  0.000001)
 20:   1053.82   0.000824    4.16  0.000244  (-0.000001  0.015620 -0.000008)
 21:   1095.10   0.002935   14.83  0.000836  (-0.000003 -0.028918  0.000004)
 22:   1100.26   0.003554   17.96  0.001008  ( 0.031750 -0.000002  0.000030)
 23:   1117.13   0.000132    0.67  0.000037  ( 0.000000  0.006072  0.000025)
 24:   1141.09   0.000000    0.00  0.000000  ( 0.000042  0.000030 -0.000009)
 25:   1146.33   0.000327    1.65  0.000089  ( 0.000059  0.000027  0.009433)
 26:   1205.17   0.022806  115.25  0.005905  (-0.076846 -0.000000 -0.000004)
 27:   1281.40   0.000338    1.71  0.000082  (-0.009075  0.000000  0.000003)
 28:   1406.60   0.000022    0.11  0.000005  (-0.000001  0.002189 -0.000023)
 29:   1433.27   0.002761   13.95  0.000601  ( 0.024515 -0.000003 -0.000472)
 30:   1435.78   0.001748    8.83  0.000380  (-0.019492  0.000000  0.000041)
 31:   1442.87   0.000439    2.22  0.000095  (-0.000142  0.008955 -0.003833)
 32:   1443.10   0.000179    0.90  0.000039  (-0.000190 -0.005309  0.003228)
 33:   1443.87   0.009690   48.97  0.002094  ( 0.000235  0.001057  0.045751)
 34:   1455.94   0.009426   47.63  0.002020  (-0.000002 -0.044948 -0.000051)
 35:   1495.48   0.000082    0.42  0.000017  (-0.004146  0.000000  0.000012)
 36:   1514.59   0.001326    6.70  0.000273  ( 0.000000 -0.016527 -0.000012)
 37:   1662.25   0.002305   11.65  0.000433  (-0.000003  0.020803 -0.000008)
 38:   1671.91   0.027702  140.00  0.005171  ( 0.071907  0.000001  0.000013)
 39:   3102.63   0.004383   22.15  0.000441  (-0.020997 -0.000001 -0.000020)
 40:   3102.89   0.000262    1.33  0.000026  ( 0.000004 -0.005135 -0.000017)
 41:   3222.78   0.000000    0.00  0.000000  ( 0.000000  0.000002 -0.000006)
 42:   3222.81   0.000065    0.33  0.000006  ( 0.000000 -0.000002  0.002509)
 43:   3233.31   0.000004    0.02  0.000000  ( 0.000017 -0.000610  0.000005)
 44:   3233.36   0.000018    0.09  0.000002  (-0.001306 -0.000008  0.000006)
 45:   3300.77   0.012361   62.47  0.001169  ( 0.000001 -0.034186  0.000003)
 46:   3301.23   0.005273   26.65  0.000498  ( 0.022326  0.000001 -0.000001)
 47:   3319.27   0.002574   13.01  0.000242  (-0.000000  0.015557  0.000001)

--------------------------
THERMOCHEMISTRY AT 298.15K
--------------------------

Temperature         ... 298.15 K
Pressure            ... 1.00 atm
Total Mass          ... 97.14 AMU

Throughout the following assumptions are being made:
  (1) The electronic state is orbitally nondegenerate
  (2) There are no thermally accessible electronically excited states
  (3) Hindered rotations indicated by low frequency modes are not
      treated as such but are treated as vibrations and this may
      cause some error
  (4) All equations used are the standard statistical mechanics
      equations for an ideal gas
  (5) All vibrations are strictly harmonic

freq.     183.73  E(vib)   ...       0.37
freq.     273.83  E(vib)   ...       0.28
freq.     275.53  E(vib)   ...       0.28
freq.     419.58  E(vib)   ...       0.18
freq.     623.47  E(vib)   ...       0.09
freq.     643.58  E(vib)   ...       0.09
freq.     644.22  E(vib)   ...       0.09
freq.     738.65  E(vib)   ...       0.06
freq.     760.86  E(vib)   ...       0.06
freq.     882.90  E(vib)   ...       0.04
freq.     907.04  E(vib)   ...       0.03
freq.    1048.73  E(vib)   ...       0.02
freq.    1053.82  E(vib)   ...       0.02
freq.    1095.10  E(vib)   ...       0.02
freq.    1100.26  E(vib)   ...       0.02
freq.    1117.13  E(vib)   ...       0.01
freq.    1141.09  E(vib)   ...       0.01
freq.    1146.33  E(vib)   ...       0.01
freq.    1205.17  E(vib)   ...       0.01
freq.    1281.40  E(vib)   ...       0.01
freq.    1406.60  E(vib)   ...       0.00
freq.    1433.27  E(vib)   ...       0.00
freq.    1435.78  E(vib)   ...       0.00
freq.    1442.87  E(vib)   ...       0.00
freq.    1443.10  E(vib)   ...       0.00
freq.    1443.87  E(vib)   ...       0.00
freq.    1455.94  E(vib)   ...       0.00
freq.    1495.48  E(vib)   ...       0.00
freq.    1514.59  E(vib)   ...       0.00
freq.    1662.25  E(vib)   ...       0.00
freq.    1671.91  E(vib)   ...       0.00
freq.    3102.63  E(vib)   ...       0.00
freq.    3102.89  E(vib)   ...       0.00
freq.    3222.78  E(vib)   ...       0.00
freq.    3222.81  E(vib)   ...       0.00
freq.    3233.31  E(vib)   ...       0.00
freq.    3233.36  E(vib)   ...       0.00
freq.    3300.77  E(vib)   ...       0.00
freq.    3301.23  E(vib)   ...       0.00
freq.    3319.27  E(vib)   ...       0.00

------------
INNER ENERGY
------------

The inner energy is: U= E(el) + E(ZPE) + E(vib) + E(rot) + E(trans)
    E(el)   - is the total energy from the electronic structure calculation
              = E(kin-el) + E(nuc-el) + E(el-el) + E(nuc-nuc)
    E(ZPE)  - the the zero temperature vibrational energy from the frequency calculation
    E(vib)  - the the finite temperature correction to E(ZPE) due to population
              of excited vibrational states
    E(rot)  - is the rotational thermal energy
    E(trans)- is the translational thermal energy

Summary of contributions to the inner energy U:
Electronic energy                ...   -305.01595983 Eh
Zero point energy                ...      0.14121703 Eh      88.61 kcal/mol
Thermal vibrational correction   ...      0.00276778 Eh       1.74 kcal/mol
Thermal rotational correction    ...      0.00141627 Eh       0.89 kcal/mol
Thermal translational correction ...      0.00141627 Eh       0.89 kcal/mol
-----------------------------------------------------------------------
Total thermal energy                   -304.86914248 Eh

Summary of corrections to the electronic energy:
(perhaps to be used in another calculation)
Total thermal correction                  0.00560032 Eh       3.51 kcal/mol
Non-thermal (ZPE) correction              0.14121703 Eh      88.61 kcal/mol
-----------------------------------------------------------------------
Total correction                          0.14681735 Eh      92.13 kcal/mol

--------
ENTHALPY
--------

The enthalpy is H = U + kB*T
                kB is Boltzmann's constant
Total free energy                 ...   -304.86914248 Eh
Thermal Enthalpy correction       ...      0.00094421 Eh       0.59 kcal/mol
-----------------------------------------------------------------------
Total Enthalpy                    ...   -304.86819827 Eh

Note: Only C1 symmetry has been detected, increase convergence thresholds
      if your molecule has a higher symmetry. Symmetry factor of 1.0 is
      used for the rotational entropy correction.

Note: Rotational entropy computed according to Herzberg
Infrared and Raman Spectra, Chapter V,1, Van Nostrand Reinhold, 1945
Point Group:  C1, Symmetry Number:   1
Rotational constants in cm-1:     0.228335     0.068735     0.053932

Vibrational entropy computed according to the QRRHO of S. Grimme
Chem.Eur.J. 2012 18 9955

-------
ENTROPY
-------

The entropy contributions are T*S = T*(S(el)+S(vib)+S(rot)+S(trans))
     S(el)   - electronic entropy
     S(vib)  - vibrational entropy
     S(rot)  - rotational entropy
     S(trans)- translational entropy
The entropies will be listed as multiplied by the temperature to get
units of energy

Electronic entropy                ...      0.00000000 Eh      0.00 kcal/mol
Vibrational entropy               ...      0.00424833 Eh      2.67 kcal/mol
Rotational entropy                ...      0.01285060 Eh      8.06 kcal/mol
Translational entropy             ...      0.01883016 Eh     11.82 kcal/mol
-----------------------------------------------------------------------
Final entropy term                ...      0.03592909 Eh     22.55 kcal/mol

In case the symmetry of your molecule has not been determined correctly
or in case you have a reason to use a different symmetry number we print
out the resulting rotational entropy values for sn=1,12 :
 --------------------------------------------------------
|  sn= 1 | S(rot)=       0.01285060 Eh      8.06 kcal/mol|
|  sn= 2 | S(rot)=       0.01219614 Eh      7.65 kcal/mol|
|  sn= 3 | S(rot)=       0.01181331 Eh      7.41 kcal/mol|
|  sn= 4 | S(rot)=       0.01154169 Eh      7.24 kcal/mol|
|  sn= 5 | S(rot)=       0.01133100 Eh      7.11 kcal/mol|
|  sn= 6 | S(rot)=       0.01115885 Eh      7.00 kcal/mol|
|  sn= 7 | S(rot)=       0.01101331 Eh      6.91 kcal/mol|
|  sn= 8 | S(rot)=       0.01088723 Eh      6.83 kcal/mol|
|  sn= 9 | S(rot)=       0.01077602 Eh      6.76 kcal/mol|
|  sn=10 | S(rot)=       0.01067654 Eh      6.70 kcal/mol|
|  sn=11 | S(rot)=       0.01058655 Eh      6.64 kcal/mol|
|  sn=12 | S(rot)=       0.01050440 Eh      6.59 kcal/mol|
 --------------------------------------------------------

-------------------
GIBBS FREE ENERGY
-------------------

The Gibbs free energy is G = H - T*S

Total enthalpy                    ...   -304.86819827 Eh
Total entropy correction          ...     -0.03592909 Eh    -22.55 kcal/mol

                             ****ORCA TERMINATED NORMALLY****
TOTAL RUN TIME: 0 days 0 hours 16 minutes 19 seconds 257 msec
