                         Program Version 5.0.4 -  RELEASE  -
|  1> # ORCA 5.0.4 - /users/bwb16179/postgrad/2024_03/DFT_Crest_Conformers/Opt/prot/1_prot_aq_3.inp # write input file
|  2> # Basic Mode
|  3> #
|  4> ! Opt Freq wB97X Def2-SVP D4 SlowConv TightSCF Defgrid2 Def2/J RIJCOSX CPCM(Water)
|  5>
|  6>
|  7>
|  8> %maxcore 4500
|  9>
| 10> %geom
| 11> Maxiter 150
| 12> END
| 13>
| 14> * xyzfile 1 1 1_prot_aq_3.xyz
| 15>
| 16>                          ****END OF INPUT****
 Total Charge           Charge          ....    1
 Multiplicity           Mult            ....    1
 Number of Electrons    NEL             ....   52
Dispersion correction           -0.001655687
FINAL SINGLE POINT ENERGY      -305.012515781266
Dispersion correction            ... Starting D4
Dispersion correction           -0.001652916
FINAL SINGLE POINT ENERGY      -305.014511174298
Dispersion correction            ... Starting D4
Dispersion correction           -0.001652490
FINAL SINGLE POINT ENERGY      -305.014666993716
Dispersion correction            ... Starting D4
FINAL SINGLE POINT ENERGY      -305.014722678630
FINAL SINGLE POINT ENERGY      -305.014732625307
FINAL SINGLE POINT ENERGY      -305.014741496860
FINAL SINGLE POINT ENERGY      -305.014761074545
FINAL SINGLE POINT ENERGY      -305.014794844165
FINAL SINGLE POINT ENERGY      -305.014848062221
FINAL SINGLE POINT ENERGY      -305.015082616083
FINAL SINGLE POINT ENERGY      -305.015939139447
FINAL SINGLE POINT ENERGY      -305.015944136259
FINAL SINGLE POINT ENERGY      -305.015946132416
FINAL SINGLE POINT ENERGY      -305.015950203893
FINAL SINGLE POINT ENERGY      -305.015955427262
FINAL SINGLE POINT ENERGY      -305.015961594488
FINAL SINGLE POINT ENERGY      -305.015968366447
Dispersion correction           -0.001653032
FINAL SINGLE POINT ENERGY      -305.015975606520
Dispersion correction            ... Starting D4
Dispersion correction           -0.001653024
FINAL SINGLE POINT ENERGY      -305.015977468253
Dispersion correction            ... Starting D4
                    ***********************HURRAY********************

CARTESIAN COORDINATES (ANGSTROEM)
---------------------------------
  N     -1.081776   -0.103373    0.036751
  C     -0.000703   -0.877938   -0.002365
  N      1.081752   -0.105173   -0.037503
  H     -0.001652   -1.968360   -0.005500
  C      0.681164    1.213004   -0.019783
  C     -0.678789    1.214112    0.026075
  C     -2.464913   -0.565377    0.074434
  C      2.464327   -0.569008   -0.076984
  H     -2.978485   -0.257247   -0.845236
  H     -2.966384   -0.128704    0.947082
  H     -2.471472   -1.658477    0.154099
  H      2.977174   -0.268646    0.845640
  H      2.967452   -0.126227   -0.945584
  H      2.469141   -1.661474   -0.165093
  H      1.397229    2.032073   -0.041822
  H     -1.393467    2.034267    0.052692

 Multiplicity           Mult            ....    1
 Number of Electrons    NEL             ....   52
 Basis Dimension        Dim             ....  143

ORBITAL ENERGIES
----------------

  NO   OCC          E(Eh)            E(eV)
   0   2.0000     -14.515567      -394.9887
   1   2.0000     -14.515552      -394.9882
   2   2.0000     -10.386155      -282.6217
   3   2.0000     -10.335612      -281.2463
   4   2.0000     -10.335034      -281.2306
   5   2.0000     -10.327965      -281.0382
   6   2.0000     -10.327939      -281.0375
   7   2.0000      -1.218531       -33.1579
   8   2.0000      -1.095049       -29.7978
   9   2.0000      -0.939025       -25.5522
  10   2.0000      -0.902425       -24.5562
  11   2.0000      -0.837699       -22.7950
  12   2.0000      -0.773673       -21.0527
  13   2.0000      -0.739823       -20.1316
  14   2.0000      -0.683952       -18.6113
  15   2.0000      -0.641467       -17.4552
  16   2.0000      -0.600658       -16.3447
  17   2.0000      -0.591428       -16.0936
  18   2.0000      -0.582181       -15.8420
  19   2.0000      -0.579809       -15.7774
  20   2.0000      -0.569187       -15.4884
  21   2.0000      -0.523557       -14.2467
  22   2.0000      -0.519569       -14.1382
  23   2.0000      -0.516973       -14.0675
  24   2.0000      -0.419003       -11.4017
  25   2.0000      -0.377812       -10.2808
  26   0.0000       0.062274         1.6946
  27   0.0000       0.090702         2.4681
  28   0.0000       0.153508         4.1772
  29   0.0000       0.161134         4.3847
  30   0.0000       0.177113         4.8195

MULLIKEN ATOMIC CHARGES
-----------------------
   0 N :   -0.221920
   1 C :    0.221757
   2 N :   -0.221973
   3 H :    0.143645
   4 C :    0.067949
   5 C :    0.067962
   6 C :    0.077894
   7 C :    0.077937
   8 H :    0.098000
   9 H :    0.096668
  10 H :    0.093120
  11 H :    0.098028
  12 H :    0.096666
  13 H :    0.093127
  14 H :    0.105572
  15 H :    0.105567
Sum of atomic charges:    1.0000000

LOEWDIN ATOMIC CHARGES
----------------------
   0 N :    0.092608
   1 C :    0.128593
   2 N :    0.092592
   3 H :    0.072878
   4 C :    0.021727
   5 C :    0.021738
   6 C :    0.057893
   7 C :    0.057943
   8 H :    0.053768
   9 H :    0.054181
  10 H :    0.055635
  11 H :    0.053763
  12 H :    0.054196
  13 H :    0.055629
  14 H :    0.063427
  15 H :    0.063429

  Mayer bond orders larger than 0.100000
B(  0-N ,  1-C ) :   1.3593 B(  0-N ,  5-C ) :   1.1716 B(  0-N ,  6-C ) :   0.8961
B(  1-C ,  2-N ) :   1.3594 B(  1-C ,  3-H ) :   0.9655 B(  2-N ,  4-C ) :   1.1716
B(  2-N ,  7-C ) :   0.8960 B(  4-C ,  5-C ) :   1.6080 B(  4-C , 14-H ) :   0.9868
B(  5-C , 15-H ) :   0.9868 B(  6-C ,  8-H ) :   0.9741 B(  6-C ,  9-H ) :   0.9738
B(  6-C , 10-H ) :   0.9720 B(  7-C , 11-H ) :   0.9741 B(  7-C , 12-H ) :   0.9738
B(  7-C , 13-H ) :   0.9721

Dispersion correction           -0.001653027
FINAL SINGLE POINT ENERGY      -305.015978240070

DIPOLE MOMENT
-------------
                                X             Y             Z
Electronic contribution:      0.00122       1.37169       0.00255
Nuclear contribution   :     -0.00150      -1.88379      -0.00369
                        -----------------------------------------
Total Dipole Moment    :     -0.00028      -0.51210      -0.00114
                        -----------------------------------------
Magnitude (a.u.)       :      0.51211
Magnitude (Debye)      :      1.30167

Dispersion correction in the Hessian             ... Starting D4

VIBRATIONAL FREQUENCIES
-----------------------

Scaling factor for frequencies =  1.000000000  (already applied!)

   0:         0.00 cm**-1
   1:         0.00 cm**-1
   2:         0.00 cm**-1
   3:         0.00 cm**-1
   4:         0.00 cm**-1
   5:         0.00 cm**-1
   6:        24.40 cm**-1
   7:        38.89 cm**-1
   8:       190.40 cm**-1
   9:       274.62 cm**-1
  10:       280.92 cm**-1
  11:       422.18 cm**-1
  12:       624.08 cm**-1
  13:       644.06 cm**-1
  14:       644.79 cm**-1
  15:       738.87 cm**-1
  16:       762.27 cm**-1
  17:       883.52 cm**-1
  18:       907.79 cm**-1
  19:      1049.44 cm**-1
  20:      1054.07 cm**-1
  21:      1096.32 cm**-1
  22:      1102.19 cm**-1
  23:      1118.39 cm**-1
  24:      1143.01 cm**-1
  25:      1148.24 cm**-1
  26:      1205.74 cm**-1
  27:      1281.95 cm**-1
  28:      1406.91 cm**-1
  29:      1434.23 cm**-1
  30:      1435.81 cm**-1
  31:      1442.17 cm**-1
  32:      1448.06 cm**-1
  33:      1448.90 cm**-1
  34:      1456.51 cm**-1
  35:      1495.79 cm**-1
  36:      1514.82 cm**-1
  37:      1661.99 cm**-1
  38:      1672.37 cm**-1
  39:      3102.64 cm**-1
  40:      3102.90 cm**-1
  41:      3222.24 cm**-1
  42:      3222.33 cm**-1
  43:      3233.34 cm**-1
  44:      3233.43 cm**-1
  45:      3300.75 cm**-1
  46:      3300.96 cm**-1
  47:      3319.01 cm**-1

IR SPECTRUM
-----------

 Mode   freq       eps      Int      T**2         TX        TY        TZ
       cm**-1   L/(mol*cm) km/mol    a.u.
----------------------------------------------------------------------------
  6:     24.40   0.000054    0.27  0.000693  ( 0.000476  0.000228  0.026312)
  7:     38.89   0.000003    0.01  0.000023  (-0.000019  0.002516 -0.004080)
  8:    190.40   0.001433    7.24  0.002349  ( 0.000732 -0.000119  0.048461)
  9:    274.62   0.000072    0.36  0.000082  ( 0.000086 -0.009040 -0.000093)
 10:    280.92   0.000121    0.61  0.000135  ( 0.000010  0.011606  0.000009)
 11:    422.18   0.000066    0.33  0.000049  (-0.006935 -0.000008  0.000699)
 12:    624.08   0.000223    1.13  0.000111  ( 0.000010 -0.010555 -0.000250)
 13:    644.06   0.010538   53.25  0.005106  (-0.001700  0.000228 -0.071434)
 14:    644.79   0.000000    0.00  0.000000  (-0.000004 -0.000377 -0.000105)
 15:    738.87   0.000882    4.45  0.000372  (-0.018733  0.000034 -0.004623)
 16:    762.27   0.010158   51.33  0.004159  ( 0.000638 -0.000188  0.064484)
 17:    883.52   0.005811   29.37  0.002053  (-0.001142  0.000178 -0.045290)
 18:    907.79   0.000000    0.00  0.000000  ( 0.000048  0.000199 -0.000235)
 19:   1049.44   0.001227    6.20  0.000365  ( 0.019103 -0.000152 -0.000072)
 20:   1054.07   0.000814    4.11  0.000241  (-0.000175 -0.015519 -0.000093)
 21:   1096.32   0.003038   15.35  0.000865  (-0.000540  0.029400  0.000145)
 22:   1102.19   0.003436   17.37  0.000973  (-0.031187 -0.000466  0.000228)
 23:   1118.39   0.000078    0.39  0.000022  ( 0.000205 -0.004658 -0.000045)
 24:   1143.01   0.000002    0.01  0.000001  ( 0.000012  0.000753  0.000299)
 25:   1148.24   0.000351    1.77  0.000095  ( 0.003042 -0.000070  0.009282)
 26:   1205.74   0.022786  115.15  0.005897  ( 0.076766 -0.000054 -0.002109)
 27:   1281.95   0.000308    1.56  0.000075  ( 0.008657  0.000019 -0.000181)
 28:   1406.91   0.000024    0.12  0.000005  (-0.000006 -0.002306  0.000041)
 29:   1434.23   0.001617    8.17  0.000352  (-0.016577 -0.000100  0.008773)
 30:   1435.81   0.003396   17.16  0.000738  ( 0.024407  0.000007 -0.011932)
 31:   1442.17   0.000220    1.11  0.000048  ( 0.000381 -0.006891  0.000273)
 32:   1448.06   0.008955   45.25  0.001930  (-0.009441 -0.001866 -0.042863)
 33:   1448.90   0.001124    5.68  0.000242  ( 0.001804 -0.013403  0.007698)
 34:   1456.51   0.008827   44.61  0.001891  ( 0.000196  0.043482  0.000630)
 35:   1495.79   0.000091    0.46  0.000019  ( 0.004288 -0.000021  0.000719)
 36:   1514.82   0.001314    6.64  0.000271  ( 0.000001  0.016450  0.000060)
 37:   1661.99   0.002290   11.58  0.000430  (-0.000016  0.020738  0.000074)
 38:   1672.37   0.027670  139.83  0.005163  ( 0.071832 -0.000039 -0.001847)
 39:   3102.64   0.004400   22.24  0.000443  ( 0.021035  0.000215  0.000119)
 40:   3102.90   0.000252    1.28  0.000025  (-0.000896  0.004957 -0.000010)
 41:   3222.24   0.000022    0.11  0.000002  (-0.000017  0.000013 -0.001465)
 42:   3222.33   0.000049    0.25  0.000005  ( 0.000019 -0.000004  0.002175)
 43:   3233.34   0.000009    0.05  0.000001  (-0.000737 -0.000535  0.000194)
 44:   3233.43   0.000017    0.08  0.000002  ( 0.001172 -0.000361 -0.000328)
 45:   3300.75   0.012344   62.38  0.001167  (-0.000161  0.034162  0.000112)
 46:   3300.96   0.005302   26.79  0.000501  ( 0.022371  0.000249 -0.000821)
 47:   3319.01   0.002558   12.93  0.000241  ( 0.000020  0.015509  0.000046)

--------------------------
THERMOCHEMISTRY AT 298.15K
--------------------------

Temperature         ... 298.15 K
Pressure            ... 1.00 atm
Total Mass          ... 97.14 AMU

Throughout the following assumptions are being made:
  (1) The electronic state is orbitally nondegenerate
  (2) There are no thermally accessible electronically excited states
  (3) Hindered rotations indicated by low frequency modes are not
      treated as such but are treated as vibrations and this may
      cause some error
  (4) All equations used are the standard statistical mechanics
      equations for an ideal gas
  (5) All vibrations are strictly harmonic

freq.      24.40  E(vib)   ...       0.56
freq.      38.89  E(vib)   ...       0.54
freq.     190.40  E(vib)   ...       0.36
freq.     274.62  E(vib)   ...       0.28
freq.     280.92  E(vib)   ...       0.28
freq.     422.18  E(vib)   ...       0.18
freq.     624.08  E(vib)   ...       0.09
freq.     644.06  E(vib)   ...       0.09
freq.     644.79  E(vib)   ...       0.09
freq.     738.87  E(vib)   ...       0.06
freq.     762.27  E(vib)   ...       0.06
freq.     883.52  E(vib)   ...       0.04
freq.     907.79  E(vib)   ...       0.03
freq.    1049.44  E(vib)   ...       0.02
freq.    1054.07  E(vib)   ...       0.02
freq.    1096.32  E(vib)   ...       0.02
freq.    1102.19  E(vib)   ...       0.02
freq.    1118.39  E(vib)   ...       0.01
freq.    1143.01  E(vib)   ...       0.01
freq.    1148.24  E(vib)   ...       0.01
freq.    1205.74  E(vib)   ...       0.01
freq.    1281.95  E(vib)   ...       0.01
freq.    1406.91  E(vib)   ...       0.00
freq.    1434.23  E(vib)   ...       0.00
freq.    1435.81  E(vib)   ...       0.00
freq.    1442.17  E(vib)   ...       0.00
freq.    1448.06  E(vib)   ...       0.00
freq.    1448.90  E(vib)   ...       0.00
freq.    1456.51  E(vib)   ...       0.00
freq.    1495.79  E(vib)   ...       0.00
freq.    1514.82  E(vib)   ...       0.00
freq.    1661.99  E(vib)   ...       0.00
freq.    1672.37  E(vib)   ...       0.00
freq.    3102.64  E(vib)   ...       0.00
freq.    3102.90  E(vib)   ...       0.00
freq.    3222.24  E(vib)   ...       0.00
freq.    3222.33  E(vib)   ...       0.00
freq.    3233.34  E(vib)   ...       0.00
freq.    3233.43  E(vib)   ...       0.00
freq.    3300.75  E(vib)   ...       0.00
freq.    3300.96  E(vib)   ...       0.00
freq.    3319.01  E(vib)   ...       0.00

------------
INNER ENERGY
------------

The inner energy is: U= E(el) + E(ZPE) + E(vib) + E(rot) + E(trans)
    E(el)   - is the total energy from the electronic structure calculation
              = E(kin-el) + E(nuc-el) + E(el-el) + E(nuc-nuc)
    E(ZPE)  - the the zero temperature vibrational energy from the frequency calculation
    E(vib)  - the the finite temperature correction to E(ZPE) due to population
              of excited vibrational states
    E(rot)  - is the rotational thermal energy
    E(trans)- is the translational thermal energy

Summary of contributions to the inner energy U:
Electronic energy                ...   -305.01597824 Eh
Zero point energy                ...      0.14145439 Eh      88.76 kcal/mol
Thermal vibrational correction   ...      0.00449172 Eh       2.82 kcal/mol
Thermal rotational correction    ...      0.00141627 Eh       0.89 kcal/mol
Thermal translational correction ...      0.00141627 Eh       0.89 kcal/mol
-----------------------------------------------------------------------
Total thermal energy                   -304.86719959 Eh

Summary of corrections to the electronic energy:
(perhaps to be used in another calculation)
Total thermal correction                  0.00732426 Eh       4.60 kcal/mol
Non-thermal (ZPE) correction              0.14145439 Eh      88.76 kcal/mol
-----------------------------------------------------------------------
Total correction                          0.14877865 Eh      93.36 kcal/mol

--------
ENTHALPY
--------

The enthalpy is H = U + kB*T
                kB is Boltzmann's constant
Total free energy                 ...   -304.86719959 Eh
Thermal Enthalpy correction       ...      0.00094421 Eh       0.59 kcal/mol
-----------------------------------------------------------------------
Total Enthalpy                    ...   -304.86625538 Eh

Note: Only C1 symmetry has been detected, increase convergence thresholds
      if your molecule has a higher symmetry. Symmetry factor of 1.0 is
      used for the rotational entropy correction.

Note: Rotational entropy computed according to Herzberg
Infrared and Raman Spectra, Chapter V,1, Van Nostrand Reinhold, 1945
Point Group:  C1, Symmetry Number:   1
Rotational constants in cm-1:     0.228143     0.068765     0.053940

Vibrational entropy computed according to the QRRHO of S. Grimme
Chem.Eur.J. 2012 18 9955

-------
ENTROPY
-------

The entropy contributions are T*S = T*(S(el)+S(vib)+S(rot)+S(trans))
     S(el)   - electronic entropy
     S(vib)  - vibrational entropy
     S(rot)  - rotational entropy
     S(trans)- translational entropy
The entropies will be listed as multiplied by the temperature to get
units of energy

Electronic entropy                ...      0.00000000 Eh      0.00 kcal/mol
Vibrational entropy               ...      0.00803633 Eh      5.04 kcal/mol
Rotational entropy                ...      0.01285073 Eh      8.06 kcal/mol
Translational entropy             ...      0.01883016 Eh     11.82 kcal/mol
-----------------------------------------------------------------------
Final entropy term                ...      0.03971721 Eh     24.92 kcal/mol

In case the symmetry of your molecule has not been determined correctly
or in case you have a reason to use a different symmetry number we print
out the resulting rotational entropy values for sn=1,12 :
 --------------------------------------------------------
|  sn= 1 | S(rot)=       0.01285073 Eh      8.06 kcal/mol|
|  sn= 2 | S(rot)=       0.01219627 Eh      7.65 kcal/mol|
|  sn= 3 | S(rot)=       0.01181344 Eh      7.41 kcal/mol|
|  sn= 4 | S(rot)=       0.01154181 Eh      7.24 kcal/mol|
|  sn= 5 | S(rot)=       0.01133113 Eh      7.11 kcal/mol|
|  sn= 6 | S(rot)=       0.01115898 Eh      7.00 kcal/mol|
|  sn= 7 | S(rot)=       0.01101344 Eh      6.91 kcal/mol|
|  sn= 8 | S(rot)=       0.01088736 Eh      6.83 kcal/mol|
|  sn= 9 | S(rot)=       0.01077615 Eh      6.76 kcal/mol|
|  sn=10 | S(rot)=       0.01067667 Eh      6.70 kcal/mol|
|  sn=11 | S(rot)=       0.01058668 Eh      6.64 kcal/mol|
|  sn=12 | S(rot)=       0.01050453 Eh      6.59 kcal/mol|
 --------------------------------------------------------

-------------------
GIBBS FREE ENERGY
-------------------

The Gibbs free energy is G = H - T*S

                             ****ORCA TERMINATED NORMALLY****
TOTAL RUN TIME: 0 days 0 hours 59 minutes 6 seconds 301 msec
