                         Program Version 5.0.4 -  RELEASE  -
|  1> # ORCA 5.0.4 - /users/bwb16179/postgrad/2024_03/DFT_Crest_Conformers/Opt/deprot/2_deprot_aq_3.inp # write input file
|  2> # Basic Mode
|  3> #
|  4> ! Opt Freq wB97X Def2-SVP D4 SlowConv TightSCF Defgrid2 Def2/J RIJCOSX CPCM(Water)
|  5>
|  6>
|  7>
|  8> %maxcore 4500
|  9>
| 10> %geom
| 11> Maxiter 150
| 12> END
| 13>
| 14> * xyzfile 0 1 2_deprot_aq_3.xyz
| 15>
| 16>                          ****END OF INPUT****
 Total Charge           Charge          ....    0
 Multiplicity           Mult            ....    1
 Number of Electrons    NEL             ....   68
Dispersion correction           -0.002990431
FINAL SINGLE POINT ENERGY      -383.077215237258
Dispersion correction            ... Starting D4
Dispersion correction           -0.002981146
FINAL SINGLE POINT ENERGY      -383.078753200778
Dispersion correction            ... Starting D4
Dispersion correction           -0.002979991
FINAL SINGLE POINT ENERGY      -383.078818981800
Dispersion correction            ... Starting D4
Dispersion correction           -0.002980009
FINAL SINGLE POINT ENERGY      -383.078837822442
Dispersion correction            ... Starting D4
Dispersion correction           -0.002980280
FINAL SINGLE POINT ENERGY      -383.078841002875
Dispersion correction            ... Starting D4
                    ***********************HURRAY********************

CARTESIAN COORDINATES (ANGSTROEM)
---------------------------------
  N     -1.056464   -0.683005    0.001354
  C      0.003001   -1.530190    0.003196
  N      1.064020   -0.682038    0.002617
  C      0.683939    0.660478    0.000213
  C     -0.678177    0.658080   -0.000394
  C     -2.437766   -1.119425    0.001765
  C      2.437169   -1.154484   -0.000873
  H     -2.966072   -0.752399    0.894990
  H     -2.450210   -2.215912    0.002730
  H     -2.965975   -0.754001   -0.892169
  H      2.627146   -1.789921    0.875493
  H      3.127601   -0.302640    0.031267
  H      2.644048   -1.736164   -0.910471
  C      1.648087    1.800070   -0.000851
  C     -1.664944    1.777038   -0.001438
  H     -2.318107    1.740665   -0.888245
  H     -1.143591    2.744087   -0.005932
  H     -2.313521    1.746522    0.888985
  H      2.295866    1.789517    0.890400
  H      1.099999    2.752291   -0.004544
  H      2.299906    1.784583   -0.889038

 Multiplicity           Mult            ....    1
 Number of Electrons    NEL             ....   68
 Basis Dimension        Dim             ....  186

ORBITAL ENERGIES
----------------

  NO   OCC          E(Eh)            E(eV)
   0   2.0000     -14.443529      -393.0284
   1   2.0000     -14.442566      -393.0022
   2   2.0000     -10.298635      -280.2401
   3   2.0000     -10.298498      -280.2364
   4   2.0000     -10.292620      -280.0764
   5   2.0000     -10.290366      -280.0151
   6   2.0000     -10.273567      -279.5580
   7   2.0000     -10.273250      -279.5493
   8   2.0000     -10.270187      -279.4660
   9   2.0000      -1.141650       -31.0659
  10   2.0000      -1.031133       -28.0586
  11   2.0000      -0.913959       -24.8701
  12   2.0000      -0.868679       -23.6380
  13   2.0000      -0.850875       -23.1535
  14   2.0000      -0.783865       -21.3301
  15   2.0000      -0.776931       -21.1414
  16   2.0000      -0.680635       -18.5210
  17   2.0000      -0.675456       -18.3801
  18   2.0000      -0.610966       -16.6252
  19   2.0000      -0.593774       -16.1574
  20   2.0000      -0.550340       -14.9755
  21   2.0000      -0.545344       -14.8396
  22   2.0000      -0.532282       -14.4841
  23   2.0000      -0.523985       -14.2584
  24   2.0000      -0.521905       -14.2017
  25   2.0000      -0.508590       -13.8394
  26   2.0000      -0.504374       -13.7247
  27   2.0000      -0.486863       -13.2482
  28   2.0000      -0.476170       -12.9572
  29   2.0000      -0.472414       -12.8550
  30   2.0000      -0.467096       -12.7103
  31   2.0000      -0.362222        -9.8566
  32   2.0000      -0.320180        -8.7125
  33   2.0000      -0.303026        -8.2458
  34   0.0000       0.126853         3.4518
  35   0.0000       0.137715         3.7474
  36   0.0000       0.147773         4.0211
  37   0.0000       0.163959         4.4616
  38   0.0000       0.190566         5.1856

MULLIKEN ATOMIC CHARGES
-----------------------
   0 N :   -0.237594
   1 C :   -0.235828
   2 N :   -0.240618
   3 C :   -0.112665
   4 C :   -0.121158
   5 C :    0.096237
   6 C :    0.095492
   7 H :    0.054983
   8 H :    0.050524
   9 H :    0.055018
  10 H :    0.054927
  11 H :    0.052058
  12 H :    0.055445
  13 C :    0.061884
  14 C :    0.075070
  15 H :    0.051736
  16 H :    0.039163
  17 H :    0.051889
  18 H :    0.058100
  19 H :    0.037757
  20 H :    0.057577
Sum of atomic charges:   -0.0000000

LOEWDIN ATOMIC CHARGES
----------------------
   0 N :    0.020068
   1 C :   -0.330113
   2 N :    0.013182
   3 C :   -0.046957
   4 C :   -0.051244
   5 C :    0.028412
   6 C :    0.030136
   7 H :    0.032585
   8 H :    0.034369
   9 H :    0.032595
  10 H :    0.033308
  11 H :    0.035275
  12 H :    0.033045
  13 C :   -0.061155
  14 C :   -0.059019
  15 H :    0.041853
  16 H :    0.043525
  17 H :    0.041873
  18 H :    0.042148
  19 H :    0.044008
  20 H :    0.042106

  Mayer bond orders larger than 0.100000
B(  0-N ,  1-C ) :   1.2546 B(  0-N ,  4-C ) :   1.1248 B(  0-N ,  5-C ) :   0.9584
B(  1-C ,  2-N ) :   1.2318 B(  2-N ,  3-C ) :   1.1300 B(  2-N ,  6-C ) :   0.9467
B(  3-C ,  4-C ) :   1.6579 B(  3-C , 13-C ) :   1.0909 B(  4-C , 14-C ) :   1.0904
B(  5-C ,  7-H ) :   0.9758 B(  5-C ,  8-H ) :   0.9706 B(  5-C ,  9-H ) :   0.9758
B(  6-C , 10-H ) :   0.9787 B(  6-C , 11-H ) :   0.9728 B(  6-C , 12-H ) :   0.9790
B( 13-C , 18-H ) :   0.9504 B( 13-C , 19-H ) :   0.9450 B( 13-C , 20-H ) :   0.9507
B( 14-C , 15-H ) :   0.9507 B( 14-C , 16-H ) :   0.9461 B( 14-C , 17-H ) :   0.9507

Dispersion correction           -0.002980423
FINAL SINGLE POINT ENERGY      -383.078842100334

DIPOLE MOMENT
-------------
                                X             Y             Z
Electronic contribution:      0.06016      -3.04500       0.00928
Nuclear contribution   :     -0.05336       4.77694      -0.01232
                        -----------------------------------------
Total Dipole Moment    :      0.00681       1.73194      -0.00304
                        -----------------------------------------
Magnitude (a.u.)       :      1.73196
Magnitude (Debye)      :      4.40228

Dispersion correction in the Hessian             ... Starting D4

VIBRATIONAL FREQUENCIES
-----------------------

Scaling factor for frequencies =  1.000000000  (already applied!)

   0:         0.00 cm**-1
   1:         0.00 cm**-1
   2:         0.00 cm**-1
   3:         0.00 cm**-1
   4:         0.00 cm**-1
   5:         0.00 cm**-1
   6:      -135.83 cm**-1 ***imaginary mode***
   7:       118.45 cm**-1
   8:       139.57 cm**-1
   9:       167.38 cm**-1
  10:       176.94 cm**-1
  11:       213.49 cm**-1
  12:       279.33 cm**-1
  13:       284.98 cm**-1
  14:       294.97 cm**-1
  15:       309.37 cm**-1
  16:       335.05 cm**-1
  17:       554.37 cm**-1
  18:       581.49 cm**-1
  19:       629.95 cm**-1
  20:       643.01 cm**-1
  21:       682.15 cm**-1
  22:       735.16 cm**-1
  23:       871.15 cm**-1
  24:       968.12 cm**-1
  25:      1046.93 cm**-1
  26:      1067.42 cm**-1
  27:      1082.41 cm**-1
  28:      1086.97 cm**-1
  29:      1119.48 cm**-1
  30:      1138.13 cm**-1
  31:      1143.80 cm**-1
  32:      1183.65 cm**-1
  33:      1255.51 cm**-1
  34:      1387.31 cm**-1
  35:      1400.40 cm**-1
  36:      1413.00 cm**-1
  37:      1424.37 cm**-1
  38:      1438.81 cm**-1
  39:      1439.58 cm**-1
  40:      1442.57 cm**-1
  41:      1444.02 cm**-1
  42:      1449.99 cm**-1
  43:      1450.78 cm**-1
  44:      1454.57 cm**-1
  45:      1455.52 cm**-1
  46:      1477.91 cm**-1
  47:      1484.59 cm**-1
  48:      1491.95 cm**-1
  49:      1501.48 cm**-1
  50:      1757.97 cm**-1
  51:      3062.09 cm**-1
  52:      3064.46 cm**-1
  53:      3071.20 cm**-1
  54:      3085.62 cm**-1
  55:      3148.30 cm**-1
  56:      3151.18 cm**-1
  57:      3165.19 cm**-1
  58:      3183.01 cm**-1
  59:      3183.57 cm**-1
  60:      3186.48 cm**-1
  61:      3211.87 cm**-1
  62:      3212.16 cm**-1

IR SPECTRUM
-----------

 Mode   freq       eps      Int      T**2         TX        TY        TZ
       cm**-1   L/(mol*cm) km/mol    a.u.
----------------------------------------------------------------------------
  7:    118.45   0.000143    0.72  0.000377  (-0.000040  0.000055 -0.019425)
  8:    139.57   0.000013    0.06  0.000028  ( 0.000202 -0.000344  0.005297)
  9:    167.38   0.000823    4.16  0.001534  (-0.000202 -0.000244  0.039162)
 10:    176.94   0.003458   17.48  0.006099  ( 0.000106 -0.000314  0.078098)
 11:    213.49   0.000034    0.17  0.000050  (-0.000529 -0.000228  0.007075)
 12:    279.33   0.000386    1.95  0.000431  ( 0.019001 -0.008382 -0.000118)
 13:    284.98   0.000055    0.28  0.000060  ( 0.001404 -0.001476  0.007507)
 14:    294.97   0.000566    2.86  0.000599  ( 0.014800 -0.019500 -0.000135)
 15:    309.37   0.001066    5.39  0.001076  ( 0.012745  0.030202  0.000983)
 16:    335.05   0.000002    0.01  0.000002  ( 0.000777  0.001035 -0.000319)
 17:    554.37   0.000264    1.33  0.000148  ( 0.012144  0.000942  0.000132)
 18:    581.49   0.001057    5.34  0.000567  (-0.023795  0.001017  0.000134)
 19:    629.95   0.000559    2.82  0.000277  (-0.001648 -0.016542 -0.000737)
 20:    643.01   0.001080    5.46  0.000524  ( 0.000271  0.000348 -0.022894)
 21:    682.15   0.000002    0.01  0.000001  (-0.000275 -0.000108  0.000963)
 22:    735.16   0.002637   13.32  0.001119  ( 0.002806 -0.033336  0.000003)
 23:    871.15   0.004841   24.47  0.001734  (-0.041602 -0.001880  0.000037)
 24:    968.12   0.000353    1.79  0.000114  (-0.004335  0.009754  0.000056)
 25:   1046.93   0.000972    4.91  0.000290  ( 0.000069 -0.000188 -0.017024)
 26:   1067.42   0.000000    0.00  0.000000  ( 0.000216 -0.000002  0.000207)
 27:   1082.41   0.000047    0.24  0.000013  ( 0.001431  0.003379  0.000029)
 28:   1086.97   0.001267    6.40  0.000364  ( 0.018209 -0.005681 -0.000094)
 29:   1119.48   0.001022    5.16  0.000285  (-0.016420  0.003900 -0.000122)
 30:   1138.13   0.000065    0.33  0.000018  (-0.002891  0.000809  0.002987)
 31:   1143.80   0.000002    0.01  0.000000  ( 0.000217 -0.000090  0.000620)
 32:   1183.65   0.001558    7.88  0.000411  (-0.006206  0.019296  0.000101)
 33:   1255.51   0.001054    5.33  0.000262  (-0.015791 -0.003541 -0.000206)
 34:   1387.31   0.000034    0.17  0.000008  (-0.002692 -0.000539  0.000369)
 35:   1400.40   0.000282    1.42  0.000063  ( 0.006710 -0.004212 -0.000111)
 36:   1413.00   0.001892    9.56  0.000418  ( 0.019928  0.004431 -0.001075)
 37:   1424.37   0.006524   32.97  0.001429  ( 0.032638 -0.019067  0.000732)
 38:   1438.81   0.002727   13.78  0.000591  ( 0.007692  0.001570 -0.023018)
 39:   1439.58   0.010833   54.75  0.002348  ( 0.047926  0.006834 -0.002182)
 40:   1442.57   0.004094   20.69  0.000886  ( 0.016041  0.004574  0.024646)
 41:   1444.02   0.001529    7.73  0.000331  ( 0.012910  0.007182 -0.010597)
 42:   1449.99   0.002709   13.69  0.000583  ( 0.023524 -0.005402 -0.000661)
 43:   1450.78   0.004131   20.88  0.000889  ( 0.001377 -0.000935  0.029762)
 44:   1454.57   0.006700   33.86  0.001438  (-0.000278  0.037402  0.006210)
 45:   1455.52   0.001804    9.12  0.000387  (-0.004356  0.009091 -0.016889)
 46:   1477.91   0.000871    4.40  0.000184  ( 0.008482 -0.010497 -0.001294)
 47:   1484.59   0.011212   56.66  0.002357  (-0.036265 -0.032245  0.001360)
 48:   1491.95   0.000424    2.14  0.000089  ( 0.009280 -0.001565 -0.000349)
 49:   1501.48   0.010765   54.40  0.002237  ( 0.044986 -0.014616 -0.000031)
 50:   1757.97   0.000954    4.82  0.000169  (-0.001274 -0.012949  0.000081)
 51:   3062.09   0.008086   40.86  0.000824  ( 0.027404 -0.008549 -0.000042)
 52:   3064.46   0.005610   28.35  0.000571  (-0.013696 -0.019588 -0.000024)
 53:   3071.20   0.010683   53.99  0.001086  (-0.032941 -0.000619  0.000057)
 54:   3085.62   0.009051   45.74  0.000915  (-0.027630  0.012304  0.000724)
 55:   3148.30   0.002803   14.17  0.000278  (-0.000021 -0.000010 -0.016669)
 56:   3151.18   0.002284   11.54  0.000226  ( 0.000042 -0.000085  0.015041)
 57:   3165.19   0.003702   18.71  0.000365  ( 0.000007 -0.000013 -0.019106)
 58:   3183.01   0.002293   11.59  0.000225  (-0.014648  0.002963  0.001195)
 59:   3183.57   0.003006   15.19  0.000295  ( 0.001162 -0.000117  0.017126)
 60:   3186.48   0.002352   11.88  0.000230  ( 0.002566  0.014956 -0.000144)
 61:   3211.87   0.000896    4.53  0.000087  ( 0.002174 -0.009074  0.000009)
 62:   3212.16   0.001299    6.57  0.000126  (-0.004580 -0.010259  0.000063)

--------------------------
THERMOCHEMISTRY AT 298.15K
--------------------------

Temperature         ... 298.15 K
Pressure            ... 1.00 atm
Total Mass          ... 124.19 AMU

Throughout the following assumptions are being made:
  (1) The electronic state is orbitally nondegenerate
  (2) There are no thermally accessible electronically excited states
  (3) Hindered rotations indicated by low frequency modes are not
      treated as such but are treated as vibrations and this may
      cause some error
  (4) All equations used are the standard statistical mechanics
      equations for an ideal gas
  (5) All vibrations are strictly harmonic

freq.     118.45  E(vib)   ...       0.44
freq.     139.57  E(vib)   ...       0.42
freq.     167.38  E(vib)   ...       0.39
freq.     176.94  E(vib)   ...       0.38
freq.     213.49  E(vib)   ...       0.34
freq.     279.33  E(vib)   ...       0.28
freq.     284.98  E(vib)   ...       0.28
freq.     294.97  E(vib)   ...       0.27
freq.     309.37  E(vib)   ...       0.26
freq.     335.05  E(vib)   ...       0.24
freq.     554.37  E(vib)   ...       0.12
freq.     581.49  E(vib)   ...       0.11
freq.     629.95  E(vib)   ...       0.09
freq.     643.01  E(vib)   ...       0.09
freq.     682.15  E(vib)   ...       0.08
freq.     735.16  E(vib)   ...       0.06
freq.     871.15  E(vib)   ...       0.04
freq.     968.12  E(vib)   ...       0.03
freq.    1046.93  E(vib)   ...       0.02
freq.    1067.42  E(vib)   ...       0.02
freq.    1082.41  E(vib)   ...       0.02
freq.    1086.97  E(vib)   ...       0.02
freq.    1119.48  E(vib)   ...       0.01
freq.    1138.13  E(vib)   ...       0.01
freq.    1143.80  E(vib)   ...       0.01
freq.    1183.65  E(vib)   ...       0.01
freq.    1255.51  E(vib)   ...       0.01
freq.    1387.31  E(vib)   ...       0.00
freq.    1400.40  E(vib)   ...       0.00
freq.    1413.00  E(vib)   ...       0.00
freq.    1424.37  E(vib)   ...       0.00
freq.    1438.81  E(vib)   ...       0.00
freq.    1439.58  E(vib)   ...       0.00
freq.    1442.57  E(vib)   ...       0.00
freq.    1444.02  E(vib)   ...       0.00
freq.    1449.99  E(vib)   ...       0.00
freq.    1450.78  E(vib)   ...       0.00
freq.    1454.57  E(vib)   ...       0.00
freq.    1455.52  E(vib)   ...       0.00
freq.    1477.91  E(vib)   ...       0.00
freq.    1484.59  E(vib)   ...       0.00
freq.    1491.95  E(vib)   ...       0.00
freq.    1501.48  E(vib)   ...       0.00
freq.    1757.97  E(vib)   ...       0.00
freq.    3062.09  E(vib)   ...       0.00
freq.    3064.46  E(vib)   ...       0.00
freq.    3071.20  E(vib)   ...       0.00
freq.    3085.62  E(vib)   ...       0.00
freq.    3148.30  E(vib)   ...       0.00
freq.    3151.18  E(vib)   ...       0.00
freq.    3165.19  E(vib)   ...       0.00
freq.    3183.01  E(vib)   ...       0.00
freq.    3183.57  E(vib)   ...       0.00
freq.    3186.48  E(vib)   ...       0.00
freq.    3211.87  E(vib)   ...       0.00
freq.    3212.16  E(vib)   ...       0.00

------------
INNER ENERGY
------------

The inner energy is: U= E(el) + E(ZPE) + E(vib) + E(rot) + E(trans)
    E(el)   - is the total energy from the electronic structure calculation
              = E(kin-el) + E(nuc-el) + E(el-el) + E(nuc-nuc)
    E(ZPE)  - the the zero temperature vibrational energy from the frequency calculation
    E(vib)  - the the finite temperature correction to E(ZPE) due to population
              of excited vibrational states
    E(rot)  - is the rotational thermal energy
    E(trans)- is the translational thermal energy

Summary of contributions to the inner energy U:
Electronic energy                ...   -383.07884210 Eh
Zero point energy                ...      0.18396015 Eh     115.44 kcal/mol
Thermal vibrational correction   ...      0.00648194 Eh       4.07 kcal/mol
Thermal rotational correction    ...      0.00141627 Eh       0.89 kcal/mol
Thermal translational correction ...      0.00141627 Eh       0.89 kcal/mol
-----------------------------------------------------------------------
Total thermal energy                   -382.88556746 Eh

Summary of corrections to the electronic energy:
(perhaps to be used in another calculation)
Total thermal correction                  0.00931448 Eh       5.84 kcal/mol
Non-thermal (ZPE) correction              0.18396015 Eh     115.44 kcal/mol
-----------------------------------------------------------------------
Total correction                          0.19327464 Eh     121.28 kcal/mol

--------
ENTHALPY
--------

The enthalpy is H = U + kB*T
                kB is Boltzmann's constant
Total free energy                 ...   -382.88556746 Eh
Thermal Enthalpy correction       ...      0.00094421 Eh       0.59 kcal/mol
-----------------------------------------------------------------------
Total Enthalpy                    ...   -382.88462325 Eh

Note: Rotational entropy computed according to Herzberg
Infrared and Raman Spectra, Chapter V,1, Van Nostrand Reinhold, 1945
Point Group:  C2v, Symmetry Number:   2
Rotational constants in cm-1:     0.081772     0.051186     0.032252

Vibrational entropy computed according to the QRRHO of S. Grimme
Chem.Eur.J. 2012 18 9955

-------
ENTROPY
-------

The entropy contributions are T*S = T*(S(el)+S(vib)+S(rot)+S(trans))
     S(el)   - electronic entropy
     S(vib)  - vibrational entropy
     S(rot)  - rotational entropy
     S(trans)- translational entropy
The entropies will be listed as multiplied by the temperature to get
units of energy

Electronic entropy                ...      0.00000000 Eh      0.00 kcal/mol
Vibrational entropy               ...      0.01096781 Eh      6.88 kcal/mol
Rotational entropy                ...      0.01306281 Eh      8.20 kcal/mol
Translational entropy             ...      0.01917803 Eh     12.03 kcal/mol
-----------------------------------------------------------------------
Final entropy term                ...      0.04320865 Eh     27.11 kcal/mol

In case the symmetry of your molecule has not been determined correctly
or in case you have a reason to use a different symmetry number we print
out the resulting rotational entropy values for sn=1,12 :
 --------------------------------------------------------
|  sn= 1 | S(rot)=       0.01371727 Eh      8.61 kcal/mol|
|  sn= 2 | S(rot)=       0.01306281 Eh      8.20 kcal/mol|
|  sn= 3 | S(rot)=       0.01267998 Eh      7.96 kcal/mol|
|  sn= 4 | S(rot)=       0.01240835 Eh      7.79 kcal/mol|
|  sn= 5 | S(rot)=       0.01219767 Eh      7.65 kcal/mol|
|  sn= 6 | S(rot)=       0.01202552 Eh      7.55 kcal/mol|
|  sn= 7 | S(rot)=       0.01187998 Eh      7.45 kcal/mol|
|  sn= 8 | S(rot)=       0.01175390 Eh      7.38 kcal/mol|
|  sn= 9 | S(rot)=       0.01164269 Eh      7.31 kcal/mol|
|  sn=10 | S(rot)=       0.01154321 Eh      7.24 kcal/mol|
|  sn=11 | S(rot)=       0.01145322 Eh      7.19 kcal/mol|
|  sn=12 | S(rot)=       0.01137107 Eh      7.14 kcal/mol|

                             ****ORCA TERMINATED NORMALLY****
TOTAL RUN TIME: 0 days 0 hours 26 minutes 15 seconds 32 msec
