                         Program Version 5.0.4 -  RELEASE  -
|  1> # ORCA 5.0.4 - /users/bwb16179/postgrad/2024_03/DFT_Crest_Conformers/Opt/deprot/2_deprot_aq_4.inp # write input file
|  2> # Basic Mode
|  3> #
|  4> ! Opt Freq wB97X Def2-SVP D4 SlowConv TightSCF Defgrid2 Def2/J RIJCOSX CPCM(Water)
|  5>
|  6>
|  7>
|  8> %maxcore 4500
|  9>
| 10> %geom
| 11> Maxiter 150
| 12> END
| 13>
| 14> * xyzfile 0 1 2_deprot_aq_4.xyz
| 15>
| 16>                          ****END OF INPUT****
 Total Charge           Charge          ....    0
 Multiplicity           Mult            ....    1
 Number of Electrons    NEL             ....   68
Dispersion correction           -0.002989523
FINAL SINGLE POINT ENERGY      -383.074127463517
Dispersion correction            ... Starting D4
Dispersion correction           -0.002980258
FINAL SINGLE POINT ENERGY      -383.075740168749
Dispersion correction            ... Starting D4
Dispersion correction           -0.002978880
FINAL SINGLE POINT ENERGY      -383.075819780181
Dispersion correction            ... Starting D4
Dispersion correction           -0.002978824
FINAL SINGLE POINT ENERGY      -383.075840088270
Dispersion correction            ... Starting D4
Dispersion correction           -0.002979063
FINAL SINGLE POINT ENERGY      -383.075844143755
Dispersion correction            ... Starting D4
                    ***********************HURRAY********************

CARTESIAN COORDINATES (ANGSTROEM)
---------------------------------
  N     -1.054454   -0.686298    0.000591
  C      0.004846   -1.532365    0.002358
  N      1.068878   -0.685855    0.001858
  C      0.686993    0.658523   -0.000685
  C     -0.674863    0.651628   -0.001178
  C     -2.436507   -1.119573    0.001072
  C      2.432481   -1.186467    0.002158
  H     -2.963131   -0.749283    0.893863
  H     -2.452487   -2.215959    0.003279
  H     -2.962757   -0.752864   -0.893409
  H      3.146684   -0.355645    0.024370
  H      2.622738   -1.782471   -0.901439
  H      2.607546   -1.816460    0.885273
  C      1.609264    1.837806   -0.000190
  C     -1.647529    1.782355   -0.003461
  H     -2.301017    1.757168   -0.890528
  H     -1.109897    2.740737   -0.008261
  H     -2.297216    1.764186    0.886575
  H      2.664795    1.540251   -0.035488
  H      1.471967    2.449888    0.904720
  H      1.422438    2.486366   -0.869881

 Multiplicity           Mult            ....    1
 Number of Electrons    NEL             ....   68
 Basis Dimension        Dim             ....  186

ORBITAL ENERGIES
----------------

  NO   OCC          E(Eh)            E(eV)
   0   2.0000     -14.443945      -393.0397
   1   2.0000     -14.443788      -393.0355
   2   2.0000     -10.298599      -280.2391
   3   2.0000     -10.298229      -280.2290
   4   2.0000     -10.292668      -280.0777
   5   2.0000     -10.288091      -279.9532
   6   2.0000     -10.273027      -279.5433
   7   2.0000     -10.272848      -279.5384
   8   2.0000     -10.269196      -279.4390
   9   2.0000      -1.141249       -31.0550
  10   2.0000      -1.030868       -28.0514
  11   2.0000      -0.914240       -24.8777
  12   2.0000      -0.867980       -23.6189
  13   2.0000      -0.849814       -23.1246
  14   2.0000      -0.784454       -21.3461
  15   2.0000      -0.776347       -21.1255
  16   2.0000      -0.680493       -18.5172
  17   2.0000      -0.675470       -18.3805
  18   2.0000      -0.611729       -16.6460
  19   2.0000      -0.593254       -16.1433
  20   2.0000      -0.549338       -14.9482
  21   2.0000      -0.546251       -14.8642
  22   2.0000      -0.530715       -14.4415
  23   2.0000      -0.524880       -14.2827
  24   2.0000      -0.523669       -14.2498
  25   2.0000      -0.507308       -13.8045
  26   2.0000      -0.503332       -13.6964
  27   2.0000      -0.488445       -13.2913
  28   2.0000      -0.476417       -12.9640
  29   2.0000      -0.469204       -12.7677
  30   2.0000      -0.466600       -12.6968
  31   2.0000      -0.362798        -9.8722
  32   2.0000      -0.319617        -8.6972
  33   2.0000      -0.301178        -8.1955
  34   0.0000       0.127961         3.4820
  35   0.0000       0.133404         3.6301
  36   0.0000       0.147356         4.0098
  37   0.0000       0.166191         4.5223
  38   0.0000       0.189637         5.1603

MULLIKEN ATOMIC CHARGES
-----------------------
   0 N :   -0.232168
   1 C :   -0.239903
   2 N :   -0.242303
   3 C :   -0.108486
   4 C :   -0.121078
   5 C :    0.096169
   6 C :    0.099379
   7 H :    0.055268
   8 H :    0.050596
   9 H :    0.055316
  10 H :    0.053146
  11 H :    0.054268
  12 H :    0.053753
  13 C :    0.050808
  14 C :    0.075185
  15 H :    0.051928
  16 H :    0.039330
  17 H :    0.052050
  18 H :    0.040168
  19 H :    0.058441
  20 H :    0.058133
Sum of atomic charges:    0.0000000

LOEWDIN ATOMIC CHARGES
----------------------
   0 N :    0.022775
   1 C :   -0.333443
   2 N :    0.014011
   3 C :   -0.046960
   4 C :   -0.051862
   5 C :    0.028692
   6 C :    0.030002
   7 H :    0.032812
   8 H :    0.034376
   9 H :    0.032807
  10 H :    0.033240
  11 H :    0.032824
  12 H :    0.032999
  13 C :   -0.060774
  14 C :   -0.059142
  15 H :    0.042009
  16 H :    0.044283
  17 H :    0.042051
  18 H :    0.040108
  19 H :    0.044486
  20 H :    0.044704

  Mayer bond orders larger than 0.100000
B(  0-N ,  1-C ) :   1.2547 B(  0-N ,  4-C ) :   1.1309 B(  0-N ,  5-C ) :   0.9582
B(  1-C ,  2-N ) :   1.2314 B(  2-N ,  3-C ) :   1.1289 B(  2-N ,  6-C ) :   0.9451
B(  3-C ,  4-C ) :   1.6521 B(  3-C , 13-C ) :   1.0767 B(  4-C , 14-C ) :   1.0951
B(  5-C ,  7-H ) :   0.9758 B(  5-C ,  8-H ) :   0.9708 B(  5-C ,  9-H ) :   0.9758
B(  6-C , 10-H ) :   0.9749 B(  6-C , 11-H ) :   0.9780 B(  6-C , 12-H ) :   0.9777
B( 13-C , 18-H ) :   0.9507 B( 13-C , 19-H ) :   0.9561 B( 13-C , 20-H ) :   0.9554
B( 14-C , 15-H ) :   0.9519 B( 14-C , 16-H ) :   0.9428 B( 14-C , 17-H ) :   0.9518

Dispersion correction           -0.002979347
FINAL SINGLE POINT ENERGY      -383.075848075246

DIPOLE MOMENT
-------------
                                X             Y             Z
Electronic contribution:      0.12043      -3.08546       0.00291
Nuclear contribution   :     -0.11796       4.83576      -0.00397
                        -----------------------------------------
Total Dipole Moment    :      0.00248       1.75030      -0.00106
                        -----------------------------------------
Magnitude (a.u.)       :      1.75031
Magnitude (Debye)      :      4.44892

Dispersion correction in the Hessian             ... Starting D4

VIBRATIONAL FREQUENCIES
-----------------------

Scaling factor for frequencies =  1.000000000  (already applied!)

   0:         0.00 cm**-1
   1:         0.00 cm**-1
   2:         0.00 cm**-1
   3:         0.00 cm**-1
   4:         0.00 cm**-1
   5:         0.00 cm**-1
   6:      -167.85 cm**-1 ***imaginary mode***
   7:      -159.55 cm**-1 ***imaginary mode***
   8:       114.73 cm**-1
   9:       135.68 cm**-1
  10:       166.22 cm**-1
  11:       174.07 cm**-1
  12:       264.24 cm**-1
  13:       271.48 cm**-1
  14:       288.19 cm**-1
  15:       341.60 cm**-1
  16:       348.92 cm**-1
  17:       555.07 cm**-1
  18:       581.76 cm**-1
  19:       630.17 cm**-1
  20:       643.58 cm**-1
  21:       683.31 cm**-1
  22:       734.70 cm**-1
  23:       866.78 cm**-1
  24:       969.17 cm**-1
  25:      1030.97 cm**-1
  26:      1063.25 cm**-1
  27:      1077.95 cm**-1
  28:      1085.16 cm**-1
  29:      1124.40 cm**-1
  30:      1137.16 cm**-1
  31:      1143.76 cm**-1
  32:      1186.36 cm**-1
  33:      1255.90 cm**-1
  34:      1390.93 cm**-1
  35:      1396.49 cm**-1
  36:      1409.09 cm**-1
  37:      1423.19 cm**-1
  38:      1434.18 cm**-1
  39:      1438.74 cm**-1
  40:      1444.32 cm**-1
  41:      1445.41 cm**-1
  42:      1447.37 cm**-1
  43:      1451.01 cm**-1
  44:      1451.82 cm**-1
  45:      1456.68 cm**-1
  46:      1471.66 cm**-1
  47:      1487.84 cm**-1
  48:      1494.83 cm**-1
  49:      1509.64 cm**-1
  50:      1747.79 cm**-1
  51:      3061.54 cm**-1
  52:      3071.67 cm**-1
  53:      3075.36 cm**-1
  54:      3090.15 cm**-1
  55:      3147.39 cm**-1
  56:      3159.25 cm**-1
  57:      3165.99 cm**-1
  58:      3183.57 cm**-1
  59:      3185.85 cm**-1
  60:      3200.43 cm**-1
  61:      3212.57 cm**-1
  62:      3224.10 cm**-1

IR SPECTRUM
-----------

 Mode   freq       eps      Int      T**2         TX        TY        TZ
       cm**-1   L/(mol*cm) km/mol    a.u.
----------------------------------------------------------------------------
  8:    114.73   0.000168    0.85  0.000456  (-0.000068  0.000039 -0.021350)
  9:    135.68   0.000034    0.17  0.000077  (-0.000036 -0.000249  0.008775)
 10:    166.22   0.000529    2.67  0.000992  (-0.000218 -0.000185  0.031500)
 11:    174.07   0.003702   18.71  0.006637  ( 0.000081  0.000089  0.081469)
 12:    264.24   0.000204    1.03  0.000241  ( 0.013069  0.008353 -0.000672)
 13:    271.48   0.000035    0.18  0.000040  (-0.001718  0.000319 -0.006104)
 14:    288.19   0.001268    6.41  0.001373  (-0.014663  0.034033  0.000171)
 15:    341.60   0.000001    0.00  0.000000  ( 0.000378  0.000482  0.000339)
 16:    348.92   0.000676    3.41  0.000604  (-0.017281 -0.017483 -0.000045)
 17:    555.07   0.000535    2.70  0.000301  ( 0.016392  0.005670  0.000053)
 18:    581.76   0.001216    6.15  0.000653  ( 0.025542  0.000387  0.000033)
 19:    630.17   0.000678    3.43  0.000336  (-0.002685 -0.018118 -0.000396)
 20:    643.58   0.000992    5.01  0.000481  (-0.000397 -0.000217  0.021929)
 21:    683.31   0.000019    0.09  0.000009  (-0.000114 -0.000008 -0.002921)
 22:    734.70   0.002831   14.31  0.001202  (-0.001942  0.034622 -0.000058)
 23:    866.78   0.002988   15.10  0.001076  (-0.032084  0.006809  0.000026)
 24:    969.17   0.001580    7.99  0.000509  (-0.022302 -0.003375  0.000134)
 25:   1030.97   0.000924    4.67  0.000280  ( 0.001557  0.000848  0.016629)
 26:   1063.25   0.000119    0.60  0.000035  ( 0.001201  0.000383 -0.005779)
 27:   1077.95   0.000523    2.64  0.000151  (-0.011947 -0.002931 -0.000121)
 28:   1085.16   0.001381    6.98  0.000397  (-0.019671  0.003169 -0.000122)
 29:   1124.40   0.000411    2.08  0.000114  (-0.002456  0.010390 -0.000232)
 30:   1137.16   0.000036    0.18  0.000010  ( 0.001496 -0.000829 -0.002627)
 31:   1143.76   0.000002    0.01  0.000001  ( 0.000143 -0.000007  0.000750)
 32:   1186.36   0.002258   11.41  0.000594  ( 0.000328  0.024368  0.000089)
 33:   1255.90   0.000953    4.82  0.000237  (-0.014687 -0.004593 -0.000309)
 34:   1390.93   0.000113    0.57  0.000025  ( 0.005025  0.000120  0.000039)
 35:   1396.49   0.000344    1.74  0.000077  (-0.002457  0.008408 -0.000299)
 36:   1409.09   0.001955    9.88  0.000433  ( 0.020717  0.001804 -0.000789)
 37:   1423.19   0.009175   46.37  0.002012  (-0.040584  0.019100 -0.000161)
 38:   1434.18   0.008387   42.38  0.001825  ( 0.042633 -0.002297 -0.001424)
 39:   1438.74   0.003515   17.77  0.000763  ( 0.002975  0.001201 -0.027427)
 40:   1444.32   0.000287    1.45  0.000062  (-0.002131 -0.003376 -0.006787)
 41:   1445.41   0.004866   24.59  0.001051  ( 0.020762  0.024891 -0.000127)
 42:   1447.37   0.003918   19.80  0.000845  (-0.022766 -0.017563 -0.004252)
 43:   1451.01   0.003411   17.24  0.000734  ( 0.000263 -0.001394 -0.027049)
 44:   1451.82   0.004522   22.85  0.000972  ( 0.005979 -0.004797  0.030221)
 45:   1456.68   0.001022    5.17  0.000219  (-0.013029  0.005360  0.004528)
 46:   1471.66   0.003278   16.57  0.000695  ( 0.022013 -0.014368 -0.002019)
 47:   1487.84   0.008722   44.08  0.001829  (-0.028186 -0.032159  0.000813)
 48:   1494.83   0.005986   30.25  0.001250  ( 0.035342  0.000393 -0.000650)
 49:   1509.64   0.004085   20.64  0.000844  (-0.024337  0.015872 -0.000476)
 50:   1747.79   0.000757    3.82  0.000135  (-0.001562  0.011518 -0.000091)
 51:   3061.54   0.006447   32.58  0.000657  ( 0.020736 -0.015073  0.000008)
 52:   3071.67   0.011601   58.63  0.001179  ( 0.034138  0.003631  0.000037)
 53:   3075.36   0.004499   22.74  0.000457  (-0.008250 -0.019700 -0.000598)
 54:   3090.15   0.009358   47.29  0.000945  ( 0.028871 -0.010556 -0.000382)
 55:   3147.39   0.002931   14.81  0.000291  ( 0.000058  0.000023  0.017049)
 56:   3159.25   0.001520    7.68  0.000150  (-0.000212  0.000156 -0.012251)
 57:   3165.99   0.003671   18.55  0.000362  ( 0.000005  0.000036  0.019021)
 58:   3183.57   0.001906    9.63  0.000187  (-0.009920 -0.009401  0.000047)
 59:   3185.85   0.003079   15.56  0.000302  ( 0.000053 -0.000046 -0.017366)
 60:   3200.43   0.001776    8.97  0.000173  (-0.008769  0.009811 -0.000004)
 61:   3212.57   0.000906    4.58  0.000088  (-0.001928  0.009183 -0.000028)
 62:   3224.10   0.001480    7.48  0.000143  (-0.008478 -0.008450 -0.000036)

--------------------------
THERMOCHEMISTRY AT 298.15K
--------------------------

Temperature         ... 298.15 K
Pressure            ... 1.00 atm
Total Mass          ... 124.19 AMU

Throughout the following assumptions are being made:
  (1) The electronic state is orbitally nondegenerate
  (2) There are no thermally accessible electronically excited states
  (3) Hindered rotations indicated by low frequency modes are not
      treated as such but are treated as vibrations and this may
      cause some error
  (4) All equations used are the standard statistical mechanics
      equations for an ideal gas
  (5) All vibrations are strictly harmonic

freq.     114.73  E(vib)   ...       0.44
freq.     135.68  E(vib)   ...       0.42
freq.     166.22  E(vib)   ...       0.39
freq.     174.07  E(vib)   ...       0.38
freq.     264.24  E(vib)   ...       0.29
freq.     271.48  E(vib)   ...       0.29
freq.     288.19  E(vib)   ...       0.27
freq.     341.60  E(vib)   ...       0.23
freq.     348.92  E(vib)   ...       0.23
freq.     555.07  E(vib)   ...       0.12
freq.     581.76  E(vib)   ...       0.11
freq.     630.17  E(vib)   ...       0.09
freq.     643.58  E(vib)   ...       0.09
freq.     683.31  E(vib)   ...       0.08
freq.     734.70  E(vib)   ...       0.06
freq.     866.78  E(vib)   ...       0.04
freq.     969.17  E(vib)   ...       0.03
freq.    1030.97  E(vib)   ...       0.02
freq.    1063.25  E(vib)   ...       0.02
freq.    1077.95  E(vib)   ...       0.02
freq.    1085.16  E(vib)   ...       0.02
freq.    1124.40  E(vib)   ...       0.01
freq.    1137.16  E(vib)   ...       0.01
freq.    1143.76  E(vib)   ...       0.01
freq.    1186.36  E(vib)   ...       0.01
freq.    1255.90  E(vib)   ...       0.01
freq.    1390.93  E(vib)   ...       0.00
freq.    1396.49  E(vib)   ...       0.00
freq.    1409.09  E(vib)   ...       0.00
freq.    1423.19  E(vib)   ...       0.00
freq.    1434.18  E(vib)   ...       0.00
freq.    1438.74  E(vib)   ...       0.00
freq.    1444.32  E(vib)   ...       0.00
freq.    1445.41  E(vib)   ...       0.00
freq.    1447.37  E(vib)   ...       0.00
freq.    1451.01  E(vib)   ...       0.00
freq.    1451.82  E(vib)   ...       0.00
freq.    1456.68  E(vib)   ...       0.00
freq.    1471.66  E(vib)   ...       0.00
freq.    1487.84  E(vib)   ...       0.00
freq.    1494.83  E(vib)   ...       0.00
freq.    1509.64  E(vib)   ...       0.00
freq.    1747.79  E(vib)   ...       0.00
freq.    3061.54  E(vib)   ...       0.00
freq.    3071.67  E(vib)   ...       0.00
freq.    3075.36  E(vib)   ...       0.00
freq.    3090.15  E(vib)   ...       0.00
freq.    3147.39  E(vib)   ...       0.00
freq.    3159.25  E(vib)   ...       0.00
freq.    3165.99  E(vib)   ...       0.00
freq.    3183.57  E(vib)   ...       0.00
freq.    3185.85  E(vib)   ...       0.00
freq.    3200.43  E(vib)   ...       0.00
freq.    3212.57  E(vib)   ...       0.00
freq.    3224.10  E(vib)   ...       0.00

------------
INNER ENERGY
------------

The inner energy is: U= E(el) + E(ZPE) + E(vib) + E(rot) + E(trans)
    E(el)   - is the total energy from the electronic structure calculation
              = E(kin-el) + E(nuc-el) + E(el-el) + E(nuc-nuc)
    E(ZPE)  - the the zero temperature vibrational energy from the frequency calculation
    E(vib)  - the the finite temperature correction to E(ZPE) due to population
              of excited vibrational states
    E(rot)  - is the rotational thermal energy
    E(trans)- is the translational thermal energy

Summary of contributions to the inner energy U:
Electronic energy                ...   -383.07584808 Eh
Zero point energy                ...      0.18351427 Eh     115.16 kcal/mol
Thermal vibrational correction   ...      0.00595782 Eh       3.74 kcal/mol
Thermal rotational correction    ...      0.00141627 Eh       0.89 kcal/mol
Thermal translational correction ...      0.00141627 Eh       0.89 kcal/mol
-----------------------------------------------------------------------
Total thermal energy                   -382.88354344 Eh

Summary of corrections to the electronic energy:
(perhaps to be used in another calculation)
Total thermal correction                  0.00879037 Eh       5.52 kcal/mol
Non-thermal (ZPE) correction              0.18351427 Eh     115.16 kcal/mol
-----------------------------------------------------------------------
Total correction                          0.19230463 Eh     120.67 kcal/mol

--------
ENTHALPY
--------

The enthalpy is H = U + kB*T
                kB is Boltzmann's constant
Total free energy                 ...   -382.88354344 Eh
Thermal Enthalpy correction       ...      0.00094421 Eh       0.59 kcal/mol
-----------------------------------------------------------------------
Total Enthalpy                    ...   -382.88259923 Eh

Note: Only C1 symmetry has been detected, increase convergence thresholds
      if your molecule has a higher symmetry. Symmetry factor of 1.0 is
      used for the rotational entropy correction.

Note: Rotational entropy computed according to Herzberg
Infrared and Raman Spectra, Chapter V,1, Van Nostrand Reinhold, 1945
Point Group:  C1, Symmetry Number:   1
Rotational constants in cm-1:     0.080285     0.051703     0.032219

Vibrational entropy computed according to the QRRHO of S. Grimme
Chem.Eur.J. 2012 18 9955

-------
ENTROPY
-------

The entropy contributions are T*S = T*(S(el)+S(vib)+S(rot)+S(trans))
     S(el)   - electronic entropy
     S(vib)  - vibrational entropy
     S(rot)  - rotational entropy
     S(trans)- translational entropy
The entropies will be listed as multiplied by the temperature to get
units of energy

Electronic entropy                ...      0.00000000 Eh      0.00 kcal/mol
Vibrational entropy               ...      0.01006579 Eh      6.32 kcal/mol
Rotational entropy                ...      0.01372167 Eh      8.61 kcal/mol
Translational entropy             ...      0.01917803 Eh     12.03 kcal/mol
-----------------------------------------------------------------------
Final entropy term                ...      0.04296550 Eh     26.96 kcal/mol

In case the symmetry of your molecule has not been determined correctly
or in case you have a reason to use a different symmetry number we print
out the resulting rotational entropy values for sn=1,12 :
 --------------------------------------------------------
|  sn= 1 | S(rot)=       0.01372167 Eh      8.61 kcal/mol|
|  sn= 2 | S(rot)=       0.01306722 Eh      8.20 kcal/mol|
|  sn= 3 | S(rot)=       0.01268438 Eh      7.96 kcal/mol|
|  sn= 4 | S(rot)=       0.01241276 Eh      7.79 kcal/mol|
|  sn= 5 | S(rot)=       0.01220207 Eh      7.66 kcal/mol|
|  sn= 6 | S(rot)=       0.01202993 Eh      7.55 kcal/mol|
|  sn= 7 | S(rot)=       0.01188438 Eh      7.46 kcal/mol|
|  sn= 8 | S(rot)=       0.01175830 Eh      7.38 kcal/mol|

                             ****ORCA TERMINATED NORMALLY****
TOTAL RUN TIME: 0 days 0 hours 33 minutes 18 seconds 161 msec
