                         Program Version 5.0.4 -  RELEASE  -
|  1> # ORCA 5.0.4 - /users/bwb16179/postgrad/2024_03/DFT_Crest_Conformers/Opt/deprot/2_deprot_aq_2.inp # write input file
|  2> # Basic Mode
|  3> #
|  4> ! Opt Freq wB97X Def2-SVP D4 SlowConv TightSCF Defgrid2 Def2/J RIJCOSX CPCM(Water)
|  5>
|  6>
|  7>
|  8> %maxcore 4500
|  9>
| 10> %geom
| 11> Maxiter 150
| 12> END
| 13>
| 14> * xyzfile 0 1 2_deprot_aq_2.xyz
| 15>
| 16>                          ****END OF INPUT****
 Total Charge           Charge          ....    0
 Multiplicity           Mult            ....    1
 Number of Electrons    NEL             ....   68
Dispersion correction           -0.002992064
FINAL SINGLE POINT ENERGY      -383.076691683603
Dispersion correction            ... Starting D4
Dispersion correction           -0.002982567
FINAL SINGLE POINT ENERGY      -383.078254538957
Dispersion correction            ... Starting D4
Dispersion correction           -0.002981301
FINAL SINGLE POINT ENERGY      -383.078328633142
Dispersion correction            ... Starting D4
FINAL SINGLE POINT ENERGY      -383.078358870782
FINAL SINGLE POINT ENERGY      -383.078381366084
FINAL SINGLE POINT ENERGY      -383.078473351982
FINAL SINGLE POINT ENERGY      -383.078602984995
FINAL SINGLE POINT ENERGY      -383.078673565483
FINAL SINGLE POINT ENERGY      -383.078711603998
FINAL SINGLE POINT ENERGY      -383.078722012112
FINAL SINGLE POINT ENERGY      -383.078731194350
FINAL SINGLE POINT ENERGY      -383.079443852976
FINAL SINGLE POINT ENERGY      -383.080091178868
FINAL SINGLE POINT ENERGY      -383.080259053434
FINAL SINGLE POINT ENERGY      -383.080539535856
FINAL SINGLE POINT ENERGY      -383.080733061341
FINAL SINGLE POINT ENERGY      -383.080785528842
Dispersion correction           -0.002983028
FINAL SINGLE POINT ENERGY      -383.080798100969
Dispersion correction            ... Starting D4
Dispersion correction           -0.002982923
FINAL SINGLE POINT ENERGY      -383.080801198508
Dispersion correction            ... Starting D4
                    ***********************HURRAY********************

CARTESIAN COORDINATES (ANGSTROEM)
---------------------------------
  N     -1.063394   -0.681249    0.000550
  C     -0.004517   -1.530050    0.057752
  N      1.055605   -0.680789    0.056935
  C      0.677751    0.659455    0.000522
  C     -0.683457    0.659178   -0.035176
  C     -2.444779   -1.117150   -0.016106
  C      2.435776   -1.117430    0.109673
  H     -2.990706   -0.729643    0.857852
  H     -2.458367   -2.213361    0.010282
  H     -2.955264   -0.772690   -0.928486
  H      2.948328   -0.693283    0.986614
  H      2.982670   -0.813577   -0.796244
  H      2.445884   -2.211516    0.183734
  C      1.661605    1.780770   -0.012141
  C     -1.666357    1.779854   -0.094751
  H     -2.305695    1.711138   -0.989624
  H     -1.141200    2.744429   -0.127441
  H     -2.328575    1.784221    0.786188
  H      2.291015    1.777126    0.892481
  H      1.137306    2.745417   -0.054579
  H      2.333772    1.721106   -0.883445

 Multiplicity           Mult            ....    1
 Number of Electrons    NEL             ....   68
 Basis Dimension        Dim             ....  186

ORBITAL ENERGIES
----------------

  NO   OCC          E(Eh)            E(eV)
   0   2.0000     -14.442972      -393.0132
   1   2.0000     -14.442969      -393.0132
   2   2.0000     -10.298501      -280.2365
   3   2.0000     -10.298466      -280.2355
   4   2.0000     -10.291535      -280.0469
   5   2.0000     -10.291015      -280.0328
   6   2.0000     -10.273399      -279.5534
   7   2.0000     -10.273344      -279.5519
   8   2.0000     -10.271410      -279.4993
   9   2.0000      -1.142122       -31.0787
  10   2.0000      -1.031893       -28.0792
  11   2.0000      -0.913642       -24.8615
  12   2.0000      -0.869181       -23.6516
  13   2.0000      -0.851058       -23.1585
  14   2.0000      -0.783265       -21.3137
  15   2.0000      -0.777200       -21.1487
  16   2.0000      -0.680817       -18.5260
  17   2.0000      -0.675583       -18.3836
  18   2.0000      -0.610353       -16.6086
  19   2.0000      -0.594716       -16.1830
  20   2.0000      -0.552097       -15.0233
  21   2.0000      -0.544566       -14.8184
  22   2.0000      -0.531441       -14.4612
  23   2.0000      -0.524050       -14.2601
  24   2.0000      -0.519288       -14.1305
  25   2.0000      -0.507218       -13.8021
  26   2.0000      -0.505675       -13.7601
  27   2.0000      -0.489158       -13.3107
  28   2.0000      -0.473668       -12.8892
  29   2.0000      -0.472822       -12.8661
  30   2.0000      -0.468845       -12.7579
  31   2.0000      -0.362246        -9.8572
  32   2.0000      -0.320582        -8.7235
  33   2.0000      -0.303706        -8.2643
  34   0.0000       0.135966         3.6998
  35   0.0000       0.136547         3.7156
  36   0.0000       0.146487         3.9861
  37   0.0000       0.161148         4.3851
  38   0.0000       0.191530         5.2118

MULLIKEN ATOMIC CHARGES
-----------------------
   0 N :   -0.241063
   1 C :   -0.234373
   2 N :   -0.241106
   3 C :   -0.116792
   4 C :   -0.116978
   5 C :    0.096317
   6 C :    0.096325
   7 H :    0.054818
   8 H :    0.050578
   9 H :    0.054784
  10 H :    0.054479
  11 H :    0.055117
  12 H :    0.050446
  13 C :    0.074661
  14 C :    0.074751
  15 H :    0.051833
  16 H :    0.039876
  17 H :    0.052310
  18 H :    0.052126
  19 H :    0.039823
  20 H :    0.052067
Sum of atomic charges:   -0.0000000

LOEWDIN ATOMIC CHARGES
----------------------
   0 N :    0.017238
   1 C :   -0.331306
   2 N :    0.017220
   3 C :   -0.048162
   4 C :   -0.048168
   5 C :    0.028369
   6 C :    0.028310
   7 H :    0.032398
   8 H :    0.034405
   9 H :    0.032433
  10 H :    0.032494
  11 H :    0.032304
  12 H :    0.034371
  13 C :   -0.059053
  14 C :   -0.059030
  15 H :    0.042057
  16 H :    0.043867
  17 H :    0.042160
  18 H :    0.042102
  19 H :    0.043872
  20 H :    0.042121

  Mayer bond orders larger than 0.100000
B(  0-N ,  1-C ) :   1.2461 B(  0-N ,  4-C ) :   1.1263 B(  0-N ,  5-C ) :   0.9586
B(  1-C ,  2-N ) :   1.2459 B(  2-N ,  3-C ) :   1.1262 B(  2-N ,  6-C ) :   0.9586
B(  3-C ,  4-C ) :   1.6632 B(  3-C , 13-C ) :   1.0906 B(  4-C , 14-C ) :   1.0905
B(  5-C ,  7-H ) :   0.9760 B(  5-C ,  8-H ) :   0.9706 B(  5-C ,  9-H ) :   0.9759
B(  6-C , 10-H ) :   0.9757 B(  6-C , 11-H ) :   0.9762 B(  6-C , 12-H ) :   0.9706
B( 13-C , 18-H ) :   0.9505 B( 13-C , 19-H ) :   0.9463 B( 13-C , 20-H ) :   0.9505
B( 14-C , 15-H ) :   0.9504 B( 14-C , 16-H ) :   0.9463 B( 14-C , 17-H ) :   0.9506

Dispersion correction           -0.002982988
FINAL SINGLE POINT ENERGY      -383.080802175296

DIPOLE MOMENT
-------------
                                X             Y             Z
Electronic contribution:     -0.00097      -3.05043       0.08304
Nuclear contribution   :      0.00142       4.78419      -0.13646
                        -----------------------------------------
Total Dipole Moment    :      0.00045       1.73376      -0.05342
                        -----------------------------------------
Magnitude (a.u.)       :      1.73458
Magnitude (Debye)      :      4.40896

Dispersion correction in the Hessian             ... Starting D4

VIBRATIONAL FREQUENCIES
-----------------------

Scaling factor for frequencies =  1.000000000  (already applied!)

   0:         0.00 cm**-1
   1:         0.00 cm**-1
   2:         0.00 cm**-1
   3:         0.00 cm**-1
   4:         0.00 cm**-1
   5:         0.00 cm**-1
   6:       120.16 cm**-1
   7:       124.84 cm**-1
   8:       145.92 cm**-1
   9:       160.49 cm**-1
  10:       180.02 cm**-1
  11:       183.18 cm**-1
  12:       277.92 cm**-1
  13:       280.79 cm**-1
  14:       294.64 cm**-1
  15:       300.63 cm**-1
  16:       327.37 cm**-1
  17:       553.17 cm**-1
  18:       582.23 cm**-1
  19:       629.72 cm**-1
  20:       643.64 cm**-1
  21:       682.44 cm**-1
  22:       734.51 cm**-1
  23:       873.79 cm**-1
  24:       968.52 cm**-1
  25:      1045.60 cm**-1
  26:      1065.84 cm**-1
  27:      1079.04 cm**-1
  28:      1086.86 cm**-1
  29:      1113.52 cm**-1
  30:      1144.23 cm**-1
  31:      1146.28 cm**-1
  32:      1183.26 cm**-1
  33:      1256.27 cm**-1
  34:      1389.10 cm**-1
  35:      1397.23 cm**-1
  36:      1413.48 cm**-1
  37:      1420.84 cm**-1
  38:      1430.02 cm**-1
  39:      1437.80 cm**-1
  40:      1439.77 cm**-1
  41:      1442.99 cm**-1
  42:      1450.18 cm**-1
  43:      1451.25 cm**-1
  44:      1452.45 cm**-1
  45:      1453.98 cm**-1
  46:      1478.38 cm**-1
  47:      1487.96 cm**-1
  48:      1491.20 cm**-1
  49:      1498.98 cm**-1
  50:      1762.29 cm**-1
  51:      3061.62 cm**-1
  52:      3062.69 cm**-1
  53:      3070.01 cm**-1
  54:      3071.23 cm**-1
  55:      3148.09 cm**-1
  56:      3148.49 cm**-1
  57:      3164.20 cm**-1
  58:      3164.26 cm**-1
  59:      3185.09 cm**-1
  60:      3186.08 cm**-1
  61:      3211.04 cm**-1
  62:      3211.32 cm**-1

IR SPECTRUM
-----------

 Mode   freq       eps      Int      T**2         TX        TY        TZ
       cm**-1   L/(mol*cm) km/mol    a.u.
----------------------------------------------------------------------------
  6:    120.16   0.000334    1.69  0.000866  (-0.000685 -0.000870  0.029413)
  7:    124.84   0.000031    0.16  0.000078  (-0.001818 -0.000554  0.008608)
  8:    145.92   0.000045    0.23  0.000095  (-0.001622  0.000238  0.009634)
  9:    160.49   0.000652    3.30  0.001268  ( 0.000266 -0.000073  0.035613)
 10:    180.02   0.000006    0.03  0.000010  (-0.002389  0.000787 -0.001830)
 11:    183.18   0.003441   17.39  0.005861  ( 0.002105 -0.004090 -0.076421)
 12:    277.92   0.000162    0.82  0.000182  (-0.011034  0.007594  0.001578)
 13:    280.79   0.000647    3.27  0.000719  ( 0.026666  0.001629  0.002334)
 14:    294.64   0.000208    1.05  0.000221  (-0.001080 -0.006993  0.013058)
 15:    300.63   0.001083    5.47  0.001124  ( 0.000746  0.033495  0.001239)
 16:    327.37   0.000001    0.00  0.000001  ( 0.000234  0.000172  0.000808)
 17:    553.17   0.000330    1.67  0.000186  (-0.013643  0.000008 -0.000420)
 18:    582.23   0.001296    6.55  0.000695  (-0.026351 -0.000001 -0.000661)
 19:    629.72   0.000478    2.41  0.000237  (-0.000036 -0.015378  0.000509)
 20:    643.64   0.001129    5.70  0.000547  (-0.000708  0.000779  0.023370)
 21:    682.44   0.000000    0.00  0.000000  (-0.000218 -0.000075  0.000152)
 22:    734.51   0.002162   10.93  0.000919  (-0.000052 -0.030289  0.001094)
 23:    873.79   0.006115   30.90  0.002184  (-0.046715  0.000056 -0.001280)
 24:    968.52   0.000147    0.74  0.000047  ( 0.000131  0.006858 -0.000441)
 25:   1045.60   0.001027    5.19  0.000307  ( 0.001171 -0.000971 -0.017445)
 26:   1065.84   0.000003    0.02  0.000001  ( 0.000372 -0.000190  0.000850)
 27:   1079.04   0.000165    0.83  0.000048  ( 0.006893  0.000237  0.000116)
 28:   1086.86   0.000011    0.05  0.000003  (-0.000522  0.001669 -0.000062)
 29:   1113.52   0.000000    0.00  0.000000  ( 0.000224 -0.000074  0.000003)
 30:   1144.23   0.000003    0.02  0.000001  (-0.000601  0.000203  0.000666)
 31:   1146.28   0.000007    0.03  0.000002  (-0.001235  0.000272  0.000488)
 32:   1183.26   0.001007    5.09  0.000266  ( 0.000014 -0.016292  0.000364)
 33:   1256.27   0.002342   11.84  0.000582  (-0.024112 -0.000060 -0.000630)
 34:   1389.10   0.000033    0.17  0.000007  ( 0.002638 -0.000107  0.000622)
 35:   1397.23   0.000042    0.21  0.000009  ( 0.000255 -0.002574  0.001615)
 36:   1413.48   0.000201    1.02  0.000044  ( 0.001958  0.006203 -0.001434)
 37:   1420.84   0.009179   46.38  0.002016  (-0.044802  0.002889 -0.000610)
 38:   1430.02   0.004019   20.31  0.000877  (-0.004959 -0.028930  0.003924)
 39:   1437.80   0.002911   14.71  0.000632  ( 0.002645 -0.000503  0.024992)
 40:   1439.77   0.002060   10.41  0.000446  ( 0.021026 -0.001779  0.001074)
 41:   1442.99   0.008182   41.35  0.001769  ( 0.042041  0.001224 -0.000756)
 42:   1450.18   0.003456   17.47  0.000744  ( 0.026114  0.002184 -0.007554)
 43:   1451.25   0.005482   27.70  0.001179  (-0.014307  0.012573 -0.028565)
 44:   1452.45   0.004163   21.04  0.000895  ( 0.006865  0.029015 -0.002353)
 45:   1453.98   0.005869   29.66  0.001260  (-0.005555  0.018763  0.029608)
 46:   1478.38   0.004695   23.73  0.000991  (-0.000206 -0.031477  0.000503)
 47:   1487.96   0.001963    9.92  0.000412  ( 0.000068 -0.020290 -0.000081)
 48:   1491.20   0.002134   10.78  0.000447  (-0.021100  0.001074 -0.000469)
 49:   1498.98   0.015317   77.41  0.003189  ( 0.056454  0.000137  0.001336)
 50:   1762.29   0.001248    6.31  0.000221  (-0.000027 -0.014856  0.000495)
 51:   3061.62   0.009565   48.34  0.000975  (-0.031201 -0.001126 -0.000393)
 52:   3062.69   0.004211   21.28  0.000429  (-0.001556  0.020645 -0.000611)
 53:   3070.01   0.020277  102.47  0.002061  ( 0.045397  0.000017  0.000422)
 54:   3071.23   0.000142    0.72  0.000014  ( 0.003041 -0.002277 -0.000144)
 55:   3148.09   0.003876   19.59  0.000384  (-0.000394  0.000638  0.019587)
 56:   3148.49   0.001215    6.14  0.000120  (-0.000170  0.000340  0.010968)
 57:   3164.20   0.005988   30.26  0.000591  ( 0.000340 -0.000842 -0.024284)
 58:   3164.26   0.001542    7.79  0.000152  ( 0.000268 -0.000819 -0.012303)
 59:   3185.09   0.001846    9.33  0.000181  ( 0.013435 -0.000389  0.000485)
 60:   3186.08   0.002225   11.24  0.000218  ( 0.000378  0.014748 -0.000531)
 61:   3211.04   0.001588    8.02  0.000154  ( 0.001150  0.012352 -0.000630)
 62:   3211.32   0.000319    1.61  0.000031  (-0.002872  0.004771 -0.000162)

--------------------------
THERMOCHEMISTRY AT 298.15K
--------------------------

Temperature         ... 298.15 K
Pressure            ... 1.00 atm
Total Mass          ... 124.19 AMU

Throughout the following assumptions are being made:
  (1) The electronic state is orbitally nondegenerate
  (2) There are no thermally accessible electronically excited states
  (3) Hindered rotations indicated by low frequency modes are not
      treated as such but are treated as vibrations and this may
      cause some error
  (4) All equations used are the standard statistical mechanics
      equations for an ideal gas
  (5) All vibrations are strictly harmonic

freq.     120.16  E(vib)   ...       0.44
freq.     124.84  E(vib)   ...       0.43
freq.     145.92  E(vib)   ...       0.41
freq.     160.49  E(vib)   ...       0.39
freq.     180.02  E(vib)   ...       0.37
freq.     183.18  E(vib)   ...       0.37
freq.     277.92  E(vib)   ...       0.28
freq.     280.79  E(vib)   ...       0.28
freq.     294.64  E(vib)   ...       0.27
freq.     300.63  E(vib)   ...       0.26
freq.     327.37  E(vib)   ...       0.24
freq.     553.17  E(vib)   ...       0.12
freq.     582.23  E(vib)   ...       0.11
freq.     629.72  E(vib)   ...       0.09
freq.     643.64  E(vib)   ...       0.09
freq.     682.44  E(vib)   ...       0.08
freq.     734.51  E(vib)   ...       0.06
freq.     873.79  E(vib)   ...       0.04
freq.     968.52  E(vib)   ...       0.03
freq.    1045.60  E(vib)   ...       0.02
freq.    1065.84  E(vib)   ...       0.02
freq.    1079.04  E(vib)   ...       0.02
freq.    1086.86  E(vib)   ...       0.02
freq.    1113.52  E(vib)   ...       0.01
freq.    1144.23  E(vib)   ...       0.01
freq.    1146.28  E(vib)   ...       0.01
freq.    1183.26  E(vib)   ...       0.01
freq.    1256.27  E(vib)   ...       0.01
freq.    1389.10  E(vib)   ...       0.00
freq.    1397.23  E(vib)   ...       0.00
freq.    1413.48  E(vib)   ...       0.00
freq.    1420.84  E(vib)   ...       0.00
freq.    1430.02  E(vib)   ...       0.00
freq.    1437.80  E(vib)   ...       0.00
freq.    1439.77  E(vib)   ...       0.00
freq.    1442.99  E(vib)   ...       0.00
freq.    1450.18  E(vib)   ...       0.00
freq.    1451.25  E(vib)   ...       0.00
freq.    1452.45  E(vib)   ...       0.00
freq.    1453.98  E(vib)   ...       0.00
freq.    1478.38  E(vib)   ...       0.00
freq.    1487.96  E(vib)   ...       0.00
freq.    1491.20  E(vib)   ...       0.00
freq.    1498.98  E(vib)   ...       0.00
freq.    1762.29  E(vib)   ...       0.00
freq.    3061.62  E(vib)   ...       0.00
freq.    3062.69  E(vib)   ...       0.00
freq.    3070.01  E(vib)   ...       0.00
freq.    3071.23  E(vib)   ...       0.00
freq.    3148.09  E(vib)   ...       0.00
freq.    3148.49  E(vib)   ...       0.00
freq.    3164.20  E(vib)   ...       0.00
freq.    3164.26  E(vib)   ...       0.00
freq.    3185.09  E(vib)   ...       0.00
freq.    3186.08  E(vib)   ...       0.00
freq.    3211.04  E(vib)   ...       0.00
freq.    3211.32  E(vib)   ...       0.00

------------
INNER ENERGY
------------

The inner energy is: U= E(el) + E(ZPE) + E(vib) + E(rot) + E(trans)
    E(el)   - is the total energy from the electronic structure calculation
              = E(kin-el) + E(nuc-el) + E(el-el) + E(nuc-nuc)
    E(ZPE)  - the the zero temperature vibrational energy from the frequency calculation
    E(vib)  - the the finite temperature correction to E(ZPE) due to population
              of excited vibrational states
    E(rot)  - is the rotational thermal energy
    E(trans)- is the translational thermal energy

Summary of contributions to the inner energy U:
Electronic energy                ...   -383.08080218 Eh
Zero point energy                ...      0.18400050 Eh     115.46 kcal/mol
Thermal vibrational correction   ...      0.00723812 Eh       4.54 kcal/mol
Thermal rotational correction    ...      0.00141627 Eh       0.89 kcal/mol
Thermal translational correction ...      0.00141627 Eh       0.89 kcal/mol
-----------------------------------------------------------------------
Total thermal energy                   -382.88673102 Eh

Summary of corrections to the electronic energy:
(perhaps to be used in another calculation)
Total thermal correction                  0.01007066 Eh       6.32 kcal/mol
Non-thermal (ZPE) correction              0.18400050 Eh     115.46 kcal/mol
-----------------------------------------------------------------------
Total correction                          0.19407116 Eh     121.78 kcal/mol

--------
ENTHALPY
--------

The enthalpy is H = U + kB*T
                kB is Boltzmann's constant
Total free energy                 ...   -382.88673102 Eh
Thermal Enthalpy correction       ...      0.00094421 Eh       0.59 kcal/mol
-----------------------------------------------------------------------
Total Enthalpy                    ...   -382.88578681 Eh

Note: Only C1 symmetry has been detected, increase convergence thresholds
      if your molecule has a higher symmetry. Symmetry factor of 1.0 is
      used for the rotational entropy correction.

Note: Rotational entropy computed according to Herzberg
Infrared and Raman Spectra, Chapter V,1, Van Nostrand Reinhold, 1945
Point Group:  C1, Symmetry Number:   1
Rotational constants in cm-1:     0.082643     0.050984     0.032306

Vibrational entropy computed according to the QRRHO of S. Grimme
Chem.Eur.J. 2012 18 9955

-------
ENTROPY
-------

The entropy contributions are T*S = T*(S(el)+S(vib)+S(rot)+S(trans))
     S(el)   - electronic entropy
     S(vib)  - vibrational entropy
     S(rot)  - rotational entropy
     S(trans)- translational entropy
The entropies will be listed as multiplied by the temperature to get
units of energy

Electronic entropy                ...      0.00000000 Eh      0.00 kcal/mol
Vibrational entropy               ...      0.01251800 Eh      7.86 kcal/mol
Rotational entropy                ...      0.01371334 Eh      8.61 kcal/mol
Translational entropy             ...      0.01917803 Eh     12.03 kcal/mol
-----------------------------------------------------------------------
Final entropy term                ...      0.04540938 Eh     28.49 kcal/mol

In case the symmetry of your molecule has not been determined correctly
or in case you have a reason to use a different symmetry number we print
out the resulting rotational entropy values for sn=1,12 :
 --------------------------------------------------------
|  sn= 1 | S(rot)=       0.01371334 Eh      8.61 kcal/mol|
|  sn= 2 | S(rot)=       0.01305889 Eh      8.19 kcal/mol|
|  sn= 3 | S(rot)=       0.01267606 Eh      7.95 kcal/mol|
|  sn= 4 | S(rot)=       0.01240443 Eh      7.78 kcal/mol|
|  sn= 5 | S(rot)=       0.01219374 Eh      7.65 kcal/mol|
|  sn= 6 | S(rot)=       0.01202160 Eh      7.54 kcal/mol|

                             ****ORCA TERMINATED NORMALLY****
TOTAL RUN TIME: 0 days 3 hours 1 minutes 33 seconds 762 msec
