                         Program Version 5.0.4 -  RELEASE  -
|  1> # ORCA 5.0.4 - /users/bwb16179/postgrad/2024_03/DFT_Crest_Conformers/Opt/deprot/2_deprot_aq_1.inp # write input file
|  2> # Basic Mode
|  3> #
|  4> ! Opt Freq wB97X Def2-SVP D4 SlowConv TightSCF Defgrid2 Def2/J RIJCOSX CPCM(Water)
|  5>
|  6>
|  7>
|  8> %maxcore 4500
|  9>
| 10> %geom
| 11> Maxiter 150
| 12> END
| 13>
| 14> * xyzfile 0 1 2_deprot_aq_1.xyz
| 15>
| 16>                          ****END OF INPUT****
 Total Charge           Charge          ....    0
 Multiplicity           Mult            ....    1
 Number of Electrons    NEL             ....   68
Dispersion correction           -0.002993080
FINAL SINGLE POINT ENERGY      -383.079218301837
Dispersion correction            ... Starting D4
Dispersion correction           -0.002983739
FINAL SINGLE POINT ENERGY      -383.080724845651
Dispersion correction            ... Starting D4
Dispersion correction           -0.002982649
FINAL SINGLE POINT ENERGY      -383.080781690083
Dispersion correction            ... Starting D4
Dispersion correction           -0.002982685
FINAL SINGLE POINT ENERGY      -383.080798294849
Dispersion correction            ... Starting D4
                    ***********************HURRAY********************

CARTESIAN COORDINATES (ANGSTROEM)
---------------------------------
  N     -1.059809   -0.683953    0.000040
  C     -0.000023   -1.533689    0.000002
  N      1.059802   -0.684001    0.000019
  C      0.680879    0.657210   -0.000037
  C     -0.680825    0.657240   -0.000043
  C     -2.441311   -1.120179    0.000086
  C      2.441282   -1.120295    0.000055
  H     -2.453805   -2.216706    0.001077
  H     -2.969893   -0.755176   -0.893879
  H     -2.970258   -0.753553    0.893163
  H      2.453719   -2.216823    0.000178
  H      2.970070   -0.754407    0.893532
  H      2.970060   -0.754607   -0.893511
  C      1.664936    1.778487   -0.000106
  C     -1.664831    1.778562    0.000036
  H     -2.316121    1.745933   -0.888287
  H     -1.139858    2.743786   -0.000789
  H     -2.314985    1.746836    0.889233
  H      2.315394    1.746466   -0.889067
  H      2.315919    1.746090    0.888454
  H      1.140007    2.743735    0.000263

 Multiplicity           Mult            ....    1
 Number of Electrons    NEL             ....   68
 Basis Dimension        Dim             ....  186

ORBITAL ENERGIES
----------------

  NO   OCC          E(Eh)            E(eV)
   0   2.0000     -14.442950      -393.0126
   1   2.0000     -14.442948      -393.0126
   2   2.0000     -10.298492      -280.2362
   3   2.0000     -10.298465      -280.2355
   4   2.0000     -10.291529      -280.0467
   5   2.0000     -10.291009      -280.0326
   6   2.0000     -10.273399      -279.5534
   7   2.0000     -10.273345      -279.5519
   8   2.0000     -10.271426      -279.4997
   9   2.0000      -1.142067       -31.0772
  10   2.0000      -1.031824       -28.0774
  11   2.0000      -0.913608       -24.8606
  12   2.0000      -0.869161       -23.6511
  13   2.0000      -0.851057       -23.1584
  14   2.0000      -0.783245       -21.3132
  15   2.0000      -0.777203       -21.1488
  16   2.0000      -0.680784       -18.5251
  17   2.0000      -0.675544       -18.3825
  18   2.0000      -0.610320       -16.6077
  19   2.0000      -0.594684       -16.1822
  20   2.0000      -0.552082       -15.0229
  21   2.0000      -0.544507       -14.8168
  22   2.0000      -0.531400       -14.4601
  23   2.0000      -0.524017       -14.2592
  24   2.0000      -0.519287       -14.1305
  25   2.0000      -0.507187       -13.8013
  26   2.0000      -0.505754       -13.7623
  27   2.0000      -0.489171       -13.3110
  28   2.0000      -0.473667       -12.8891
  29   2.0000      -0.472829       -12.8663
  30   2.0000      -0.468859       -12.7583
  31   2.0000      -0.362216        -9.8564
  32   2.0000      -0.320599        -8.7239
  33   2.0000      -0.303703        -8.2642
  34   0.0000       0.136007         3.7009
  35   0.0000       0.136561         3.7160
  36   0.0000       0.146471         3.9857
  37   0.0000       0.161140         4.3848
  38   0.0000       0.191514         5.2114

MULLIKEN ATOMIC CHARGES
-----------------------
   0 N :   -0.241175
   1 C :   -0.234272
   2 N :   -0.241177
   3 C :   -0.116945
   4 C :   -0.116948
   5 C :    0.096348
   6 C :    0.096348
   7 H :    0.050522
   8 H :    0.054794
   9 H :    0.054770
  10 H :    0.050522
  11 H :    0.054784
  12 H :    0.054780
  13 C :    0.074859
  14 C :    0.074857
  15 H :    0.052072
  16 H :    0.039776
  17 H :    0.052119
  18 H :    0.052104
  19 H :    0.052087
  20 H :    0.039776
Sum of atomic charges:    0.0000000

LOEWDIN ATOMIC CHARGES
----------------------
   0 N :    0.017184
   1 C :   -0.331284
   2 N :    0.017184
   3 C :   -0.048159
   4 C :   -0.048159
   5 C :    0.028377
   6 C :    0.028377
   7 H :    0.034386
   8 H :    0.032394
   9 H :    0.032400
  10 H :    0.034386
  11 H :    0.032397
  12 H :    0.032396
  13 C :   -0.059014
  14 C :   -0.059014
  15 H :    0.042109
  16 H :    0.043851
  17 H :    0.042115
  18 H :    0.042113
  19 H :    0.042111
  20 H :    0.043851

  Mayer bond orders larger than 0.100000
B(  0-N ,  1-C ) :   1.2460 B(  0-N ,  4-C ) :   1.1262 B(  0-N ,  5-C ) :   0.9586
B(  1-C ,  2-N ) :   1.2460 B(  2-N ,  3-C ) :   1.1262 B(  2-N ,  6-C ) :   0.9586
B(  3-C ,  4-C ) :   1.6632 B(  3-C , 13-C ) :   1.0905 B(  4-C , 14-C ) :   1.0905
B(  5-C ,  7-H ) :   0.9706 B(  5-C ,  8-H ) :   0.9759 B(  5-C ,  9-H ) :   0.9759
B(  6-C , 10-H ) :   0.9706 B(  6-C , 11-H ) :   0.9759 B(  6-C , 12-H ) :   0.9759
B( 13-C , 18-H ) :   0.9505 B( 13-C , 19-H ) :   0.9505 B( 13-C , 20-H ) :   0.9463
B( 14-C , 15-H ) :   0.9505 B( 14-C , 16-H ) :   0.9463 B( 14-C , 17-H ) :   0.9505

Dispersion correction           -0.002982982
FINAL SINGLE POINT ENERGY      -383.080800984159

DIPOLE MOMENT
-------------
                                X             Y             Z
Electronic contribution:     -0.00007      -3.05237      -0.00017
Nuclear contribution   :      0.00010       4.78699       0.00024
                        -----------------------------------------
Total Dipole Moment    :      0.00004       1.73462       0.00007
                        -----------------------------------------
Magnitude (a.u.)       :      1.73462
Magnitude (Debye)      :      4.40904

Dispersion correction in the Hessian             ... Starting D4

VIBRATIONAL FREQUENCIES
-----------------------

Scaling factor for frequencies =  1.000000000  (already applied!)

   0:         0.00 cm**-1
   1:         0.00 cm**-1
   2:         0.00 cm**-1
   3:         0.00 cm**-1
   4:         0.00 cm**-1
   5:         0.00 cm**-1
   6:       116.38 cm**-1
   7:       120.44 cm**-1
   8:       141.46 cm**-1
   9:       166.32 cm**-1
  10:       177.87 cm**-1
  11:       178.78 cm**-1
  12:       277.03 cm**-1
  13:       278.40 cm**-1
  14:       294.98 cm**-1
  15:       298.07 cm**-1
  16:       326.21 cm**-1
  17:       552.51 cm**-1
  18:       582.03 cm**-1
  19:       629.51 cm**-1
  20:       643.51 cm**-1
  21:       682.53 cm**-1
  22:       734.44 cm**-1
  23:       873.27 cm**-1
  24:       968.70 cm**-1
  25:      1046.79 cm**-1
  26:      1066.62 cm**-1
  27:      1078.01 cm**-1
  28:      1085.70 cm**-1
  29:      1113.39 cm**-1
  30:      1143.31 cm**-1
  31:      1144.14 cm**-1
  32:      1183.03 cm**-1
  33:      1256.13 cm**-1
  34:      1389.43 cm**-1
  35:      1397.47 cm**-1
  36:      1413.32 cm**-1
  37:      1419.52 cm**-1
  38:      1428.80 cm**-1
  39:      1437.94 cm**-1
  40:      1440.21 cm**-1
  41:      1442.30 cm**-1
  42:      1450.09 cm**-1
  43:      1450.52 cm**-1
  44:      1451.00 cm**-1
  45:      1452.46 cm**-1
  46:      1478.20 cm**-1
  47:      1487.57 cm**-1
  48:      1490.98 cm**-1
  49:      1498.59 cm**-1
  50:      1762.18 cm**-1
  51:      3061.82 cm**-1
  52:      3062.96 cm**-1
  53:      3070.11 cm**-1
  54:      3071.31 cm**-1
  55:      3148.73 cm**-1
  56:      3148.93 cm**-1
  57:      3164.32 cm**-1
  58:      3164.36 cm**-1
  59:      3184.88 cm**-1
  60:      3186.19 cm**-1
  61:      3211.26 cm**-1
  62:      3211.47 cm**-1

IR SPECTRUM
-----------

 Mode   freq       eps      Int      T**2         TX        TY        TZ
       cm**-1   L/(mol*cm) km/mol    a.u.
----------------------------------------------------------------------------
  6:    116.38   0.000255    1.29  0.000685  ( 0.000040 -0.000036  0.026168)
  7:    120.44   0.000000    0.00  0.000000  ( 0.000037 -0.000027 -0.000064)
  8:    141.46   0.000000    0.00  0.000000  (-0.000021  0.000019 -0.000005)
  9:    166.32   0.000831    4.20  0.001559  (-0.000054 -0.000003  0.039480)
 10:    177.87   0.003413   17.25  0.005988  ( 0.000016  0.000018  0.077382)
 11:    178.78   0.000000    0.00  0.000000  (-0.000025 -0.000004 -0.000496)
 12:    277.03   0.000065    0.33  0.000073  (-0.000046 -0.008541 -0.000025)
 13:    278.40   0.000760    3.84  0.000852  (-0.029196  0.000016  0.000021)
 14:    294.98   0.000147    0.74  0.000156  (-0.000039  0.000042 -0.012485)
 15:    298.07   0.001120    5.66  0.001173  (-0.000002 -0.034247 -0.000011)
 16:    326.21   0.000000    0.00  0.000000  (-0.000010 -0.000007 -0.000000)
 17:    552.51   0.000348    1.76  0.000197  (-0.014024  0.000001  0.000008)
 18:    582.03   0.001276    6.45  0.000684  (-0.026157  0.000001  0.000005)
 19:    629.51   0.000477    2.41  0.000236  (-0.000000 -0.015371 -0.000012)
 20:    643.51   0.001130    5.71  0.000548  (-0.000010  0.000008 -0.023408)
 21:    682.53   0.000000    0.00  0.000000  ( 0.000010 -0.000008  0.000000)
 22:    734.44   0.002162   10.92  0.000918  ( 0.000001  0.030306 -0.000001)
 23:    873.27   0.006123   30.94  0.002188  (-0.046777  0.000001 -0.000006)
 24:    968.70   0.000139    0.70  0.000045  ( 0.000000 -0.006698 -0.000000)
 25:   1046.79   0.001030    5.21  0.000307  (-0.000041  0.000009  0.017526)
 26:   1066.62   0.000000    0.00  0.000000  ( 0.000011 -0.000019 -0.000001)
 27:   1078.01   0.000165    0.83  0.000048  (-0.006915  0.000000  0.000005)
 28:   1085.70   0.000012    0.06  0.000003  ( 0.000001 -0.001832  0.000003)
 29:   1113.39   0.000000    0.00  0.000000  ( 0.000034  0.000000  0.000004)
 30:   1143.31   0.000002    0.01  0.000000  (-0.000027 -0.000007 -0.000699)
 31:   1144.14   0.000000    0.00  0.000000  ( 0.000033  0.000006 -0.000000)
 32:   1183.03   0.001005    5.08  0.000265  ( 0.000000  0.016282  0.000003)
 33:   1256.13   0.002341   11.83  0.000582  ( 0.024115 -0.000001 -0.000013)
 34:   1389.43   0.000026    0.13  0.000006  (-0.002395 -0.000000 -0.000026)
 35:   1397.47   0.000036    0.18  0.000008  ( 0.000000  0.002846 -0.000011)
 36:   1413.32   0.000161    0.81  0.000036  ( 0.000002 -0.005963 -0.000003)
 37:   1419.52   0.009124   46.11  0.002006  ( 0.044787 -0.000000  0.000018)
 38:   1428.80   0.003684   18.62  0.000805  ( 0.000000 -0.028364  0.000045)
 39:   1437.94   0.002667   13.48  0.000579  ( 0.000294  0.000028 -0.024054)
 40:   1440.21   0.000000    0.00  0.000000  (-0.000189 -0.000059  0.000015)
 41:   1442.30   0.009936   50.21  0.002150  (-0.046366  0.000002 -0.000091)
 42:   1450.09   0.005028   25.41  0.001082  ( 0.032891  0.000019 -0.000395)
 43:   1450.52   0.000006    0.03  0.000001  (-0.001117  0.000300  0.000011)
 44:   1451.00   0.008497   42.94  0.001827  ( 0.000382 -0.000298  0.042745)
 45:   1452.46   0.006668   33.70  0.001433  (-0.000002  0.037849  0.000362)
 46:   1478.20   0.004586   23.18  0.000968  (-0.000002  0.031115  0.000016)
 47:   1487.57   0.001937    9.79  0.000406  ( 0.000000  0.020156  0.000016)
 48:   1490.98   0.001871    9.45  0.000392  ( 0.019787 -0.000003  0.000000)
 49:   1498.59   0.015491   78.29  0.003226  ( 0.056796  0.000000 -0.000011)
 50:   1762.18   0.001245    6.29  0.000221  ( 0.000000  0.014850 -0.000002)
 51:   3061.82   0.009525   48.14  0.000971  ( 0.031158  0.000005 -0.000012)
 52:   3062.96   0.004209   21.27  0.000429  (-0.000008  0.020707  0.000003)
 53:   3070.11   0.020374  102.96  0.002071  (-0.045507  0.000001 -0.000011)
 54:   3071.31   0.000045    0.23  0.000005  ( 0.000005  0.002128  0.000013)
 55:   3148.73   0.005098   25.76  0.000505  ( 0.000005 -0.000003  0.022477)
 56:   3148.93   0.000000    0.00  0.000000  ( 0.000002 -0.000002  0.000005)
 57:   3164.32   0.007521   38.01  0.000742  (-0.000004  0.000009  0.027234)
 58:   3164.36   0.000000    0.00  0.000000  (-0.000001  0.000005  0.000054)
 59:   3184.88   0.001871    9.45  0.000183  (-0.013539  0.000001  0.000000)
 60:   3186.19   0.002214   11.19  0.000217  (-0.000001 -0.014725  0.000001)
 61:   3211.26   0.001788    9.04  0.000174  (-0.000008 -0.013182  0.000006)
 62:   3211.47   0.000100    0.50  0.000010  ( 0.003113 -0.000035  0.000004)

--------------------------
THERMOCHEMISTRY AT 298.15K
--------------------------

Temperature         ... 298.15 K
Pressure            ... 1.00 atm
Total Mass          ... 124.19 AMU

Throughout the following assumptions are being made:
  (1) The electronic state is orbitally nondegenerate
  (2) There are no thermally accessible electronically excited states
  (3) Hindered rotations indicated by low frequency modes are not
      treated as such but are treated as vibrations and this may
      cause some error
  (4) All equations used are the standard statistical mechanics
      equations for an ideal gas
  (5) All vibrations are strictly harmonic

freq.     116.38  E(vib)   ...       0.44
freq.     120.44  E(vib)   ...       0.44
freq.     141.46  E(vib)   ...       0.41
freq.     166.32  E(vib)   ...       0.39
freq.     177.87  E(vib)   ...       0.37
freq.     178.78  E(vib)   ...       0.37
freq.     277.03  E(vib)   ...       0.28
freq.     278.40  E(vib)   ...       0.28
freq.     294.98  E(vib)   ...       0.27
freq.     298.07  E(vib)   ...       0.27
freq.     326.21  E(vib)   ...       0.24
freq.     552.51  E(vib)   ...       0.12
freq.     582.03  E(vib)   ...       0.11
freq.     629.51  E(vib)   ...       0.09
freq.     643.51  E(vib)   ...       0.09
freq.     682.53  E(vib)   ...       0.08
freq.     734.44  E(vib)   ...       0.06
freq.     873.27  E(vib)   ...       0.04
freq.     968.70  E(vib)   ...       0.03
freq.    1046.79  E(vib)   ...       0.02
freq.    1066.62  E(vib)   ...       0.02
freq.    1078.01  E(vib)   ...       0.02
freq.    1085.70  E(vib)   ...       0.02
freq.    1113.39  E(vib)   ...       0.01
freq.    1143.31  E(vib)   ...       0.01
freq.    1144.14  E(vib)   ...       0.01
freq.    1183.03  E(vib)   ...       0.01
freq.    1256.13  E(vib)   ...       0.01
freq.    1389.43  E(vib)   ...       0.00
freq.    1397.47  E(vib)   ...       0.00
freq.    1413.32  E(vib)   ...       0.00
freq.    1419.52  E(vib)   ...       0.00
freq.    1428.80  E(vib)   ...       0.00
freq.    1437.94  E(vib)   ...       0.00
freq.    1440.21  E(vib)   ...       0.00
freq.    1442.30  E(vib)   ...       0.00
freq.    1450.09  E(vib)   ...       0.00
freq.    1450.52  E(vib)   ...       0.00
freq.    1451.00  E(vib)   ...       0.00
freq.    1452.46  E(vib)   ...       0.00
freq.    1478.20  E(vib)   ...       0.00
freq.    1487.57  E(vib)   ...       0.00
freq.    1490.98  E(vib)   ...       0.00
freq.    1498.59  E(vib)   ...       0.00
freq.    1762.18  E(vib)   ...       0.00
freq.    3061.82  E(vib)   ...       0.00
freq.    3062.96  E(vib)   ...       0.00
freq.    3070.11  E(vib)   ...       0.00
freq.    3071.31  E(vib)   ...       0.00
freq.    3148.73  E(vib)   ...       0.00
freq.    3148.93  E(vib)   ...       0.00
freq.    3164.32  E(vib)   ...       0.00
freq.    3164.36  E(vib)   ...       0.00
freq.    3184.88  E(vib)   ...       0.00
freq.    3186.19  E(vib)   ...       0.00
freq.    3211.26  E(vib)   ...       0.00
freq.    3211.47  E(vib)   ...       0.00

------------
INNER ENERGY
------------

The inner energy is: U= E(el) + E(ZPE) + E(vib) + E(rot) + E(trans)
    E(el)   - is the total energy from the electronic structure calculation
              = E(kin-el) + E(nuc-el) + E(el-el) + E(nuc-nuc)
    E(ZPE)  - the the zero temperature vibrational energy from the frequency calculation
    E(vib)  - the the finite temperature correction to E(ZPE) due to population
              of excited vibrational states
    E(rot)  - is the rotational thermal energy
    E(trans)- is the translational thermal energy

Summary of contributions to the inner energy U:
Electronic energy                ...   -383.08080098 Eh
Zero point energy                ...      0.18393125 Eh     115.42 kcal/mol
Thermal vibrational correction   ...      0.00727154 Eh       4.56 kcal/mol
Thermal rotational correction    ...      0.00141627 Eh       0.89 kcal/mol
Thermal translational correction ...      0.00141627 Eh       0.89 kcal/mol
-----------------------------------------------------------------------
Total thermal energy                   -382.88676564 Eh

Summary of corrections to the electronic energy:
(perhaps to be used in another calculation)
Total thermal correction                  0.01010409 Eh       6.34 kcal/mol
Non-thermal (ZPE) correction              0.18393125 Eh     115.42 kcal/mol
-----------------------------------------------------------------------
Total correction                          0.19403534 Eh     121.76 kcal/mol

--------
ENTHALPY
--------

The enthalpy is H = U + kB*T
                kB is Boltzmann's constant
Total free energy                 ...   -382.88676564 Eh
Thermal Enthalpy correction       ...      0.00094421 Eh       0.59 kcal/mol
-----------------------------------------------------------------------
Total Enthalpy                    ...   -382.88582143 Eh

Note: Only C1 symmetry has been detected, increase convergence thresholds
      if your molecule has a higher symmetry. Symmetry factor of 1.0 is
      used for the rotational entropy correction.

Note: Rotational entropy computed according to Herzberg
Infrared and Raman Spectra, Chapter V,1, Van Nostrand Reinhold, 1945
Point Group:  C1, Symmetry Number:   1
Rotational constants in cm-1:     0.082661     0.050975     0.032305

Vibrational entropy computed according to the QRRHO of S. Grimme
Chem.Eur.J. 2012 18 9955

-------
ENTROPY
-------

The entropy contributions are T*S = T*(S(el)+S(vib)+S(rot)+S(trans))
     S(el)   - electronic entropy
     S(vib)  - vibrational entropy
     S(rot)  - rotational entropy
     S(trans)- translational entropy
The entropies will be listed as multiplied by the temperature to get
units of energy

Electronic entropy                ...      0.00000000 Eh      0.00 kcal/mol
Vibrational entropy               ...      0.01260340 Eh      7.91 kcal/mol
Rotational entropy                ...      0.01371335 Eh      8.61 kcal/mol
Translational entropy             ...      0.01917803 Eh     12.03 kcal/mol
-----------------------------------------------------------------------
Final entropy term                ...      0.04549478 Eh     28.55 kcal/mol

In case the symmetry of your molecule has not been determined correctly
or in case you have a reason to use a different symmetry number we print
out the resulting rotational entropy values for sn=1,12 :
 --------------------------------------------------------
|  sn= 1 | S(rot)=       0.01371335 Eh      8.61 kcal/mol|
|  sn= 2 | S(rot)=       0.01305889 Eh      8.19 kcal/mol|
|  sn= 3 | S(rot)=       0.01267606 Eh      7.95 kcal/mol|
|  sn= 4 | S(rot)=       0.01240443 Eh      7.78 kcal/mol|
|  sn= 5 | S(rot)=       0.01219375 Eh      7.65 kcal/mol|
|  sn= 6 | S(rot)=       0.01202160 Eh      7.54 kcal/mol|

                             ****ORCA TERMINATED NORMALLY****
TOTAL RUN TIME: 0 days 0 hours 41 minutes 16 seconds 873 msec
