                         Program Version 5.0.4 -  RELEASE  -
|  1> # ORCA 5.0.4 - /users/bwb16179/postgrad/2024_03/DFT_Crest_Conformers/Opt/prot/2_prot_aq_4.inp # write input file
|  2> # Basic Mode
|  3> #
|  4> ! Opt Freq wB97X Def2-SVP D4 SlowConv TightSCF Defgrid2 Def2/J RIJCOSX CPCM(Water)
|  5>
|  6>
|  7>
|  8> %maxcore 4500
|  9>
| 10> %geom
| 11> Maxiter 150
| 12> END
| 13>
| 14> * xyzfile 1 1 2_prot_aq_4.xyz
| 15>
| 16>                          ****END OF INPUT****
 Total Charge           Charge          ....    1
 Multiplicity           Mult            ....    1
 Number of Electrons    NEL             ....   68
Dispersion correction           -0.002871113
FINAL SINGLE POINT ENERGY      -383.581400390816
Dispersion correction            ... Starting D4
Dispersion correction           -0.002862821
FINAL SINGLE POINT ENERGY      -383.583430283851
Dispersion correction            ... Starting D4
Dispersion correction           -0.002861328
FINAL SINGLE POINT ENERGY      -383.583543340365
Dispersion correction            ... Starting D4
Dispersion correction           -0.002860932
FINAL SINGLE POINT ENERGY      -383.583575891724
Dispersion correction            ... Starting D4
Dispersion correction           -0.002861057
FINAL SINGLE POINT ENERGY      -383.583578982061
Dispersion correction            ... Starting D4
                    ***********************HURRAY********************

CARTESIAN COORDINATES (ANGSTROEM)
---------------------------------
  N     -1.075371   -0.651112   -0.000448
  C      0.005097   -1.423001   -0.001139
  N      1.089281   -0.650642   -0.001156
  C      0.690618    0.679582   -0.000169
  C     -0.679558    0.673927    0.000191
  C     -2.455345   -1.115749   -0.001239
  C      2.449307   -1.182435    0.000685
  H     -2.967448   -0.743007    0.895603
  H     -2.460760   -2.211759    0.000051
  H     -2.965849   -0.745052   -0.899857
  H      2.596900   -1.816381   -0.882545
  H      2.615377   -1.767036    0.914306
  H      3.162577   -0.353757   -0.030126
  C      1.610807    1.855475    0.000829
  C     -1.650320    1.802415    0.001201
  H     -1.108034    2.756785    0.001580
  H     -2.295728    1.772075    0.892660
  H     -2.296453    1.773172   -0.889759
  H      1.440184    2.477722   -0.889866
  H      2.665568    1.555759    0.003663
  H      1.435962    2.479076    0.889742
  H      0.005840   -2.512876   -0.002056

 Multiplicity           Mult            ....    1
 Number of Electrons    NEL             ....   68
 Basis Dimension        Dim             ....  191

ORBITAL ENERGIES
----------------

  NO   OCC          E(Eh)            E(eV)
   0   2.0000     -14.507674      -394.7739
   1   2.0000     -14.507660      -394.7735
   2   2.0000     -10.376184      -282.3503
   3   2.0000     -10.333638      -281.1926
   4   2.0000     -10.329557      -281.0815
   5   2.0000     -10.326344      -280.9941
   6   2.0000     -10.325073      -280.9595
   7   2.0000     -10.286879      -279.9202
   8   2.0000     -10.286794      -279.9179
   9   2.0000      -1.210232       -32.9321
  10   2.0000      -1.090100       -29.6631
  11   2.0000      -0.954492       -25.9731
  12   2.0000      -0.909286       -24.7429
  13   2.0000      -0.875261       -23.8171
  14   2.0000      -0.825884       -22.4734
  15   2.0000      -0.823585       -22.4109
  16   2.0000      -0.732717       -19.9382
  17   2.0000      -0.722800       -19.6684
  18   2.0000      -0.661642       -18.0042
  19   2.0000      -0.641192       -17.4477
  20   2.0000      -0.603885       -16.4326
  21   2.0000      -0.591665       -16.1000
  22   2.0000      -0.579950       -15.7813
  23   2.0000      -0.555004       -15.1024
  24   2.0000      -0.542835       -14.7713
  25   2.0000      -0.537937       -14.6380
  26   2.0000      -0.527504       -14.3541
  27   2.0000      -0.522973       -14.2308
  28   2.0000      -0.512172       -13.9369
  29   2.0000      -0.504120       -13.7178
  30   2.0000      -0.502459       -13.6726
  31   2.0000      -0.494802       -13.4643
  32   2.0000      -0.409938       -11.1550
  33   2.0000      -0.346614        -9.4318
  34   0.0000       0.063558         1.7295
  35   0.0000       0.104667         2.8481
  36   0.0000       0.139252         3.7892
  37   0.0000       0.158149         4.3035
  38   0.0000       0.167495         4.5578

MULLIKEN ATOMIC CHARGES
-----------------------
   0 N :   -0.210618
   1 C :    0.211758
   2 N :   -0.225783
   3 C :   -0.077810
   4 C :   -0.095350
   5 C :    0.079797
   6 C :    0.078780
   7 H :    0.092717
   8 H :    0.093493
   9 H :    0.092787
  10 H :    0.094520
  11 H :    0.095012
  12 H :    0.086615
  13 C :    0.054786
  14 C :    0.078441
  15 H :    0.057642
  16 H :    0.073505
  17 H :    0.073463
  18 H :    0.078681
  19 H :    0.056674
  20 H :    0.078592
  21 H :    0.132297
Sum of atomic charges:    1.0000000

LOEWDIN ATOMIC CHARGES
----------------------
   0 N :    0.094631
   1 C :    0.118641
   2 N :    0.086675
   3 C :   -0.004595
   4 C :   -0.008856
   5 C :    0.054494
   6 C :    0.054566
   7 H :    0.052219
   8 H :    0.055648
   9 H :    0.052223
  10 H :    0.053405
  11 H :    0.053135
  12 H :    0.049515
  13 C :   -0.051582
  14 C :   -0.050523
  15 H :    0.054046
  16 H :    0.053582
  17 H :    0.053571
  18 H :    0.055847
  19 H :    0.048786
  20 H :    0.055873
  21 H :    0.068700

  Mayer bond orders larger than 0.100000
B(  0-N ,  1-C ) :   1.3566 B(  0-N ,  4-C ) :   1.1689 B(  0-N ,  5-C ) :   0.9096
B(  1-C ,  2-N ) :   1.3471 B(  1-C , 21-H ) :   0.9688 B(  2-N ,  3-C ) :   1.1685
B(  2-N ,  6-C ) :   0.8988 B(  3-C ,  4-C ) :   1.6122 B(  3-C , 13-C ) :   1.0815
B(  4-C , 14-C ) :   1.0976 B(  5-C ,  7-H ) :   0.9715 B(  5-C ,  8-H ) :   0.9696
B(  5-C ,  9-H ) :   0.9715 B(  6-C , 10-H ) :   0.9730 B(  6-C , 11-H ) :   0.9733
B(  6-C , 12-H ) :   0.9719 B( 13-C , 18-H ) :   0.9515 B( 13-C , 19-H ) :   0.9466
B( 13-C , 20-H ) :   0.9514 B( 14-C , 15-H ) :   0.9383 B( 14-C , 16-H ) :   0.9487
B( 14-C , 17-H ) :   0.9486

Dispersion correction           -0.002861159
FINAL SINGLE POINT ENERGY      -383.583580353817

DIPOLE MOMENT
-------------
                                X             Y             Z
Electronic contribution:      0.10601      -3.57070      -0.00532
Nuclear contribution   :     -0.12884       2.49777       0.00461
                        -----------------------------------------
Total Dipole Moment    :     -0.02284      -1.07293      -0.00071
                        -----------------------------------------
Magnitude (a.u.)       :      1.07317
Magnitude (Debye)      :      2.72779

Dispersion correction in the Hessian             ... Starting D4

VIBRATIONAL FREQUENCIES
-----------------------

Scaling factor for frequencies =  1.000000000  (already applied!)

   0:         0.00 cm**-1
   1:         0.00 cm**-1
   2:         0.00 cm**-1
   3:         0.00 cm**-1
   4:         0.00 cm**-1
   5:         0.00 cm**-1
   6:      -160.19 cm**-1 ***imaginary mode***
   7:      -129.83 cm**-1 ***imaginary mode***
   8:        98.57 cm**-1
   9:       139.57 cm**-1
  10:       158.70 cm**-1
  11:       170.49 cm**-1
  12:       264.11 cm**-1
  13:       277.72 cm**-1
  14:       283.84 cm**-1
  15:       338.51 cm**-1
  16:       343.46 cm**-1
  17:       536.55 cm**-1
  18:       579.15 cm**-1
  19:       622.73 cm**-1
  20:       642.11 cm**-1
  21:       695.27 cm**-1
  22:       742.46 cm**-1
  23:       855.42 cm**-1
  24:       857.14 cm**-1
  25:       976.39 cm**-1
  26:      1036.41 cm**-1
  27:      1067.58 cm**-1
  28:      1082.20 cm**-1
  29:      1099.65 cm**-1
  30:      1124.75 cm**-1
  31:      1136.85 cm**-1
  32:      1143.86 cm**-1
  33:      1196.34 cm**-1
  34:      1233.57 cm**-1
  35:      1282.66 cm**-1
  36:      1397.44 cm**-1
  37:      1404.03 cm**-1
  38:      1413.22 cm**-1
  39:      1431.74 cm**-1
  40:      1436.99 cm**-1
  41:      1440.95 cm**-1
  42:      1441.83 cm**-1
  43:      1442.92 cm**-1
  44:      1447.11 cm**-1
  45:      1450.32 cm**-1
  46:      1454.14 cm**-1
  47:      1459.90 cm**-1
  48:      1480.78 cm**-1
  49:      1532.86 cm**-1
  50:      1539.69 cm**-1
  51:      1666.37 cm**-1
  52:      1727.69 cm**-1
  53:      3074.76 cm**-1
  54:      3088.47 cm**-1
  55:      3097.21 cm**-1
  56:      3110.63 cm**-1
  57:      3168.32 cm**-1
  58:      3180.35 cm**-1
  59:      3202.50 cm**-1
  60:      3212.34 cm**-1
  61:      3215.61 cm**-1
  62:      3220.05 cm**-1
  63:      3229.25 cm**-1
  64:      3255.68 cm**-1
  65:      3300.63 cm**-1

IR SPECTRUM
-----------

 Mode   freq       eps      Int      T**2         TX        TY        TZ
       cm**-1   L/(mol*cm) km/mol    a.u.
----------------------------------------------------------------------------
  8:     98.57   0.000044    0.22  0.000139  (-0.000017  0.000037 -0.011793)
  9:    139.57   0.000001    0.00  0.000002  (-0.000044 -0.000184 -0.001370)
 10:    158.70   0.000206    1.04  0.000406  (-0.000012  0.000042  0.020145)
 11:    170.49   0.001772    8.96  0.003244  (-0.000076  0.000104  0.056960)
 12:    264.11   0.000055    0.28  0.000065  (-0.007384 -0.003132  0.000502)
 13:    277.72   0.000463    2.34  0.000520  ( 0.008156 -0.021230  0.001637)
 14:    283.84   0.002118   10.70  0.002329  (-0.000093  0.000584  0.048253)
 15:    338.51   0.000085    0.43  0.000079  (-0.001050 -0.001224 -0.008722)
 16:    343.46   0.000216    1.09  0.000197  ( 0.009372  0.010357 -0.001243)
 17:    536.55   0.000407    2.06  0.000237  ( 0.014353 -0.005566 -0.000087)
 18:    579.15   0.000655    3.31  0.000353  ( 0.018772 -0.000731 -0.000080)
 19:    622.73   0.000684    3.46  0.000343  (-0.000231 -0.018505 -0.000419)
 20:    642.11   0.004521   22.85  0.002197  ( 0.000068  0.000207 -0.046875)
 21:    695.27   0.000000    0.00  0.000000  ( 0.000044  0.000065 -0.000465)
 22:    742.46   0.000686    3.47  0.000288  ( 0.000760 -0.016960  0.000055)
 23:    855.42   0.000942    4.76  0.000344  ( 0.016622 -0.007898  0.002203)
 24:    857.14   0.002957   14.94  0.001076  ( 0.001039 -0.000429 -0.032791)
 25:    976.39   0.001669    8.43  0.000533  ( 0.016430  0.016229  0.000121)
 26:   1036.41   0.001483    7.49  0.000446  (-0.000137 -0.000045  0.021128)
 27:   1067.58   0.000129    0.65  0.000038  ( 0.000062  0.000061  0.006136)
 28:   1082.20   0.000061    0.31  0.000018  ( 0.003011 -0.002914  0.000042)
 29:   1099.65   0.001743    8.81  0.000495  (-0.016754  0.014625  0.000125)
 30:   1124.75   0.002708   13.69  0.000751  ( 0.025993  0.008690  0.000478)
 31:   1136.85   0.000050    0.25  0.000014  ( 0.000488  0.001233 -0.003443)
 32:   1143.86   0.000121    0.61  0.000033  (-0.000084  0.000306 -0.005748)
 33:   1196.34   0.000251    1.27  0.000065  (-0.002952 -0.007528  0.000064)
 34:   1233.57   0.015928   80.49  0.004029  (-0.063309  0.004619  0.000040)
 35:   1282.66   0.000459    2.32  0.000112  ( 0.009580  0.004457 -0.000150)
 36:   1397.44   0.000668    3.38  0.000149  ( 0.005282 -0.011006 -0.000413)
 37:   1404.03   0.001243    6.28  0.000276  (-0.016460 -0.002252 -0.000438)
 38:   1413.22   0.000684    3.46  0.000151  (-0.011040  0.005406 -0.000109)
 39:   1431.74   0.006191   31.29  0.001349  (-0.034723  0.011859 -0.001772)
 40:   1436.99   0.003455   17.46  0.000750  (-0.000535 -0.000405 -0.027384)
 41:   1440.95   0.003754   18.97  0.000813  (-0.006625 -0.027631  0.002364)
 42:   1441.83   0.002567   12.97  0.000556  ( 0.000286  0.001954 -0.023488)
 43:   1442.92   0.004566   23.08  0.000988  (-0.013415 -0.028410  0.000695)
 44:   1447.11   0.004964   25.08  0.001070  (-0.000124  0.000082 -0.032717)
 45:   1450.32   0.005410   27.34  0.001164  (-0.002289  0.005561  0.033585)
 46:   1454.14   0.000240    1.21  0.000051  (-0.005413 -0.002682  0.003869)
 47:   1459.90   0.001198    6.06  0.000256  ( 0.008619 -0.013282  0.002333)
 48:   1480.78   0.004964   25.09  0.001046  ( 0.008422  0.031227  0.000197)
 49:   1532.86   0.001374    6.94  0.000280  ( 0.015698 -0.005767  0.000262)
 50:   1539.69   0.000527    2.66  0.000107  (-0.007048 -0.007563 -0.000009)
 51:   1666.37   0.029057  146.84  0.005441  ( 0.073749  0.001590  0.000176)
 52:   1727.69   0.007059   35.67  0.001275  (-0.011049  0.033954  0.000060)
 53:   3074.76   0.001958    9.89  0.000199  ( 0.011449 -0.008221 -0.000006)
 54:   3088.47   0.001648    8.33  0.000167  (-0.008673 -0.009556  0.000056)
 55:   3097.21   0.002173   10.98  0.000219  (-0.014288 -0.003851 -0.000022)
 56:   3110.63   0.002880   14.55  0.000289  ( 0.015691 -0.006532  0.000208)
 57:   3168.32   0.000601    3.04  0.000059  ( 0.000004 -0.000018  0.007695)
 58:   3180.35   0.000262    1.33  0.000026  ( 0.000010  0.000024 -0.005074)
 59:   3202.50   0.000355    1.80  0.000035  (-0.003776 -0.004514 -0.000008)
 60:   3212.34   0.000077    0.39  0.000008  (-0.000009 -0.000005  0.002743)
 61:   3215.61   0.000411    2.08  0.000040  (-0.005470  0.003153 -0.000038)
 62:   3220.05   0.000073    0.37  0.000007  (-0.000066  0.000137  0.002651)
 63:   3229.25   0.000006    0.03  0.000001  ( 0.000170 -0.000727 -0.000006)
 64:   3255.68   0.000068    0.34  0.000006  (-0.002171  0.001332  0.000002)
 65:   3300.63   0.011150   56.35  0.001054  (-0.000418  0.032465  0.000025)

--------------------------
THERMOCHEMISTRY AT 298.15K
--------------------------

Temperature         ... 298.15 K
Pressure            ... 1.00 atm
Total Mass          ... 125.19 AMU

Throughout the following assumptions are being made:
  (1) The electronic state is orbitally nondegenerate
  (2) There are no thermally accessible electronically excited states
  (3) Hindered rotations indicated by low frequency modes are not
      treated as such but are treated as vibrations and this may
      cause some error
  (4) All equations used are the standard statistical mechanics
      equations for an ideal gas
  (5) All vibrations are strictly harmonic

freq.      98.57  E(vib)   ...       0.46
freq.     139.57  E(vib)   ...       0.42
freq.     158.70  E(vib)   ...       0.39
freq.     170.49  E(vib)   ...       0.38
freq.     264.11  E(vib)   ...       0.29
freq.     277.72  E(vib)   ...       0.28
freq.     283.84  E(vib)   ...       0.28
freq.     338.51  E(vib)   ...       0.23
freq.     343.46  E(vib)   ...       0.23
freq.     536.55  E(vib)   ...       0.12
freq.     579.15  E(vib)   ...       0.11
freq.     622.73  E(vib)   ...       0.09
freq.     642.11  E(vib)   ...       0.09
freq.     695.27  E(vib)   ...       0.07
freq.     742.46  E(vib)   ...       0.06
freq.     855.42  E(vib)   ...       0.04
freq.     857.14  E(vib)   ...       0.04
freq.     976.39  E(vib)   ...       0.03
freq.    1036.41  E(vib)   ...       0.02
freq.    1067.58  E(vib)   ...       0.02
freq.    1082.20  E(vib)   ...       0.02
freq.    1099.65  E(vib)   ...       0.02
freq.    1124.75  E(vib)   ...       0.01
freq.    1136.85  E(vib)   ...       0.01
freq.    1143.86  E(vib)   ...       0.01
freq.    1196.34  E(vib)   ...       0.01
freq.    1233.57  E(vib)   ...       0.01
freq.    1282.66  E(vib)   ...       0.01
freq.    1397.44  E(vib)   ...       0.00
freq.    1404.03  E(vib)   ...       0.00
freq.    1413.22  E(vib)   ...       0.00
freq.    1431.74  E(vib)   ...       0.00
freq.    1436.99  E(vib)   ...       0.00
freq.    1440.95  E(vib)   ...       0.00
freq.    1441.83  E(vib)   ...       0.00
freq.    1442.92  E(vib)   ...       0.00
freq.    1447.11  E(vib)   ...       0.00
freq.    1450.32  E(vib)   ...       0.00
freq.    1454.14  E(vib)   ...       0.00
freq.    1459.90  E(vib)   ...       0.00
freq.    1480.78  E(vib)   ...       0.00
freq.    1532.86  E(vib)   ...       0.00
freq.    1539.69  E(vib)   ...       0.00
freq.    1666.37  E(vib)   ...       0.00
freq.    1727.69  E(vib)   ...       0.00
freq.    3074.76  E(vib)   ...       0.00
freq.    3088.47  E(vib)   ...       0.00
freq.    3097.21  E(vib)   ...       0.00
freq.    3110.63  E(vib)   ...       0.00
freq.    3168.32  E(vib)   ...       0.00
freq.    3180.35  E(vib)   ...       0.00
freq.    3202.50  E(vib)   ...       0.00
freq.    3212.34  E(vib)   ...       0.00
freq.    3215.61  E(vib)   ...       0.00
freq.    3220.05  E(vib)   ...       0.00
freq.    3229.25  E(vib)   ...       0.00
freq.    3255.68  E(vib)   ...       0.00
freq.    3300.63  E(vib)   ...       0.00

------------
INNER ENERGY
------------

The inner energy is: U= E(el) + E(ZPE) + E(vib) + E(rot) + E(trans)
    E(el)   - is the total energy from the electronic structure calculation
              = E(kin-el) + E(nuc-el) + E(el-el) + E(nuc-nuc)
    E(ZPE)  - the the zero temperature vibrational energy from the frequency calculation
    E(vib)  - the the finite temperature correction to E(ZPE) due to population
              of excited vibrational states
    E(rot)  - is the rotational thermal energy
    E(trans)- is the translational thermal energy

Summary of contributions to the inner energy U:
Electronic energy                ...   -383.58358035 Eh
Zero point energy                ...      0.19708383 Eh     123.67 kcal/mol
Thermal vibrational correction   ...      0.00608702 Eh       3.82 kcal/mol
Thermal rotational correction    ...      0.00141627 Eh       0.89 kcal/mol
Thermal translational correction ...      0.00141627 Eh       0.89 kcal/mol
-----------------------------------------------------------------------
Total thermal energy                   -383.37757696 Eh

Summary of corrections to the electronic energy:
(perhaps to be used in another calculation)
Total thermal correction                  0.00891956 Eh       5.60 kcal/mol
Non-thermal (ZPE) correction              0.19708383 Eh     123.67 kcal/mol
-----------------------------------------------------------------------
Total correction                          0.20600339 Eh     129.27 kcal/mol

--------
ENTHALPY
--------

The enthalpy is H = U + kB*T
                kB is Boltzmann's constant
Total free energy                 ...   -383.37757696 Eh
Thermal Enthalpy correction       ...      0.00094421 Eh       0.59 kcal/mol
-----------------------------------------------------------------------
Total Enthalpy                    ...   -383.37663275 Eh

Note: Only C1 symmetry has been detected, increase convergence thresholds
      if your molecule has a higher symmetry. Symmetry factor of 1.0 is
      used for the rotational entropy correction.

Note: Rotational entropy computed according to Herzberg
Infrared and Raman Spectra, Chapter V,1, Van Nostrand Reinhold, 1945
Point Group:  C1, Symmetry Number:   1
Rotational constants in cm-1:     0.078943     0.051122     0.031783

Vibrational entropy computed according to the QRRHO of S. Grimme
Chem.Eur.J. 2012 18 9955

-------
ENTROPY
-------

The entropy contributions are T*S = T*(S(el)+S(vib)+S(rot)+S(trans))
     S(el)   - electronic entropy
     S(vib)  - vibrational entropy
     S(rot)  - rotational entropy
     S(trans)- translational entropy
The entropies will be listed as multiplied by the temperature to get
units of energy

Electronic entropy                ...      0.00000000 Eh      0.00 kcal/mol
Vibrational entropy               ...      0.01028771 Eh      6.46 kcal/mol
Rotational entropy                ...      0.01374139 Eh      8.62 kcal/mol
Translational entropy             ...      0.01918948 Eh     12.04 kcal/mol
-----------------------------------------------------------------------
Final entropy term                ...      0.04321858 Eh     27.12 kcal/mol

In case the symmetry of your molecule has not been determined correctly
or in case you have a reason to use a different symmetry number we print
out the resulting rotational entropy values for sn=1,12 :
 --------------------------------------------------------
|  sn= 1 | S(rot)=       0.01374139 Eh      8.62 kcal/mol|
|  sn= 2 | S(rot)=       0.01308694 Eh      8.21 kcal/mol|
|  sn= 3 | S(rot)=       0.01270411 Eh      7.97 kcal/mol|
|  sn= 4 | S(rot)=       0.01243248 Eh      7.80 kcal/mol|
|  sn= 5 | S(rot)=       0.01222179 Eh      7.67 kcal/mol|

                             ****ORCA TERMINATED NORMALLY****
TOTAL RUN TIME: 0 days 0 hours 36 minutes 0 seconds 861 msec
