                         Program Version 5.0.4 -  RELEASE  -
|  1> # ORCA 5.0.4 - /users/bwb16179/postgrad/2024_03/DFT_Crest_Conformers/Opt/prot/2_prot_aq_2.inp # write input file
|  2> # Basic Mode
|  3> #
|  4> ! Opt Freq wB97X Def2-SVP D4 SlowConv TightSCF Defgrid2 Def2/J RIJCOSX CPCM(Water)
|  5>
|  6>
|  7>
|  8> %maxcore 4500
|  9>
| 10> %geom
| 11> Maxiter 150
| 12> END
| 13>
| 14> * xyzfile 1 1 2_prot_aq_2.xyz
| 15>
| 16>                          ****END OF INPUT****
 Total Charge           Charge          ....    1
 Multiplicity           Mult            ....    1
 Number of Electrons    NEL             ....   68
Dispersion correction           -0.002872924
FINAL SINGLE POINT ENERGY      -383.583580688146
Dispersion correction            ... Starting D4
Dispersion correction           -0.002864530
FINAL SINGLE POINT ENERGY      -383.585572430642
Dispersion correction            ... Starting D4
Dispersion correction           -0.002863085
FINAL SINGLE POINT ENERGY      -383.585672837465
Dispersion correction            ... Starting D4
FINAL SINGLE POINT ENERGY      -383.585708128161
FINAL SINGLE POINT ENERGY      -383.585715067550
FINAL SINGLE POINT ENERGY      -383.585731532450
FINAL SINGLE POINT ENERGY      -383.585788404326
FINAL SINGLE POINT ENERGY      -383.585885356185
FINAL SINGLE POINT ENERGY      -383.585881711176
FINAL SINGLE POINT ENERGY      -383.585901192916
FINAL SINGLE POINT ENERGY      -383.587300346120
FINAL SINGLE POINT ENERGY      -383.587564542734
FINAL SINGLE POINT ENERGY      -383.587712215675
FINAL SINGLE POINT ENERGY      -383.587737979320
FINAL SINGLE POINT ENERGY      -383.587748859513
FINAL SINGLE POINT ENERGY      -383.587757044097
FINAL SINGLE POINT ENERGY      -383.587760856880
Dispersion correction           -0.002863852
FINAL SINGLE POINT ENERGY      -383.587766110094
Dispersion correction            ... Starting D4
Dispersion correction           -0.002863884
FINAL SINGLE POINT ENERGY      -383.587768127980
Dispersion correction            ... Starting D4
                    ***********************HURRAY********************

CARTESIAN COORDINATES (ANGSTROEM)
---------------------------------
  N     -1.083586   -0.646931    0.006850
  C     -0.003976   -1.420107   -0.043233
  N      1.075924   -0.645542   -0.048539
  C      0.680939    0.682611    0.000729
  C     -0.688167    0.681769    0.035378
  C     -2.463238   -1.112224    0.026905
  C      2.454719   -1.110709   -0.100736
  H     -2.469055   -2.207543   -0.014011
  H     -2.998983   -0.708856   -0.842561
  H     -2.951574   -0.775158    0.950768
  H      2.457256   -2.204746   -0.168461
  H      2.985829   -0.796513    0.807562
  H      2.950900   -0.687354   -0.983948
  C      1.663928    1.800749    0.008122
  C     -1.671741    1.798064    0.090100
  H     -2.334805    1.784377   -0.788678
  H     -1.144797    2.760529    0.108207
  H     -2.298726    1.730909    0.992459
  H      2.293042    1.781844   -0.895074
  H      2.325072    1.741509    0.886460
  H      1.136155    2.762438    0.038981
  H     -0.003988   -2.509663   -0.077244

 Multiplicity           Mult            ....    1
 Number of Electrons    NEL             ....   68
 Basis Dimension        Dim             ....  191

ORBITAL ENERGIES
----------------

  NO   OCC          E(Eh)            E(eV)
   0   2.0000     -14.506594      -394.7445
   1   2.0000     -14.506575      -394.7440
   2   2.0000     -10.378682      -282.4183
   3   2.0000     -10.332185      -281.1531
   4   2.0000     -10.331685      -281.1394
   5   2.0000     -10.326094      -280.9873
   6   2.0000     -10.326052      -280.9862
   7   2.0000     -10.286994      -279.9233
   8   2.0000     -10.286940      -279.9219
   9   2.0000      -1.210814       -32.9479
  10   2.0000      -1.090584       -29.6763
  11   2.0000      -0.953798       -25.9542
  12   2.0000      -0.911018       -24.7901
  13   2.0000      -0.876378       -23.8475
  14   2.0000      -0.824991       -22.4491
  15   2.0000      -0.823717       -22.4145
  16   2.0000      -0.732599       -19.9350
  17   2.0000      -0.723426       -19.6854
  18   2.0000      -0.661617       -18.0035
  19   2.0000      -0.641984       -17.4693
  20   2.0000      -0.602974       -16.4078
  21   2.0000      -0.591667       -16.1001
  22   2.0000      -0.581816       -15.8320
  23   2.0000      -0.553416       -15.0592
  24   2.0000      -0.538751       -14.6602
  25   2.0000      -0.538564       -14.6551
  26   2.0000      -0.529851       -14.4180
  27   2.0000      -0.522938       -14.2299
  28   2.0000      -0.508867       -13.8470
  29   2.0000      -0.506839       -13.7918
  30   2.0000      -0.504212       -13.7203
  31   2.0000      -0.496958       -13.5229
  32   2.0000      -0.409025       -11.1301
  33   2.0000      -0.348737        -9.4896
  34   0.0000       0.067360         1.8330
  35   0.0000       0.107613         2.9283
  36   0.0000       0.138483         3.7683
  37   0.0000       0.153837         4.1861
  38   0.0000       0.167680         4.5628

MULLIKEN ATOMIC CHARGES
-----------------------
   0 N :   -0.221442
   1 C :    0.208832
   2 N :   -0.221576
   3 C :   -0.089506
   4 C :   -0.089765
   5 C :    0.079956
   6 C :    0.079905
   7 H :    0.093166
   8 H :    0.091902
   9 H :    0.092213
  10 H :    0.093040
  11 H :    0.092525
  12 H :    0.091627
  13 C :    0.077687
  14 C :    0.077734
  15 H :    0.073088
  16 H :    0.057587
  17 H :    0.072901
  18 H :    0.072900
  19 H :    0.073120
  20 H :    0.057522
  21 H :    0.136580
Sum of atomic charges:    1.0000000

LOEWDIN ATOMIC CHARGES
----------------------
   0 N :    0.089212
   1 C :    0.120470
   2 N :    0.089161
   3 C :   -0.006763
   4 C :   -0.006810
   5 C :    0.054031
   6 C :    0.053973
   7 H :    0.055568
   8 H :    0.051771
   9 H :    0.051765
  10 H :    0.055568
  11 H :    0.051758
  12 H :    0.051747
  13 C :   -0.050575
  14 C :   -0.050574
  15 H :    0.053382
  16 H :    0.053492
  17 H :    0.053366
  18 H :    0.053304
  19 H :    0.053443
  20 H :    0.053489
  21 H :    0.069222

  Mayer bond orders larger than 0.100000
B(  0-N ,  1-C ) :   1.3541 B(  0-N ,  4-C ) :   1.1609 B(  0-N ,  5-C ) :   0.9102
B(  1-C ,  2-N ) :   1.3539 B(  1-C , 21-H ) :   0.9660 B(  2-N ,  3-C ) :   1.1609
B(  2-N ,  6-C ) :   0.9102 B(  3-C ,  4-C ) :   1.6285 B(  3-C , 13-C ) :   1.0927
B(  4-C , 14-C ) :   1.0926 B(  5-C ,  7-H ) :   0.9694 B(  5-C ,  8-H ) :   0.9716
B(  5-C ,  9-H ) :   0.9718 B(  6-C , 10-H ) :   0.9695 B(  6-C , 11-H ) :   0.9719
B(  6-C , 12-H ) :   0.9716 B( 13-C , 18-H ) :   0.9474 B( 13-C , 19-H ) :   0.9474
B( 13-C , 20-H ) :   0.9422 B( 14-C , 15-H ) :   0.9475 B( 14-C , 16-H ) :   0.9421
B( 14-C , 17-H ) :   0.9472

Dispersion correction           -0.002863890
FINAL SINGLE POINT ENERGY      -383.587768849775

DIPOLE MOMENT
-------------
                                X             Y             Z
Electronic contribution:      0.00166      -3.54935      -0.08564
Nuclear contribution   :     -0.00241       2.45601       0.04863
                        -----------------------------------------
Total Dipole Moment    :     -0.00075      -1.09334      -0.03700
                        -----------------------------------------
Magnitude (a.u.)       :      1.09397
Magnitude (Debye)      :      2.78064

Dispersion correction in the Hessian             ... Starting D4

VIBRATIONAL FREQUENCIES
-----------------------

Scaling factor for frequencies =  1.000000000  (already applied!)

   0:         0.00 cm**-1
   1:         0.00 cm**-1
   2:         0.00 cm**-1
   3:         0.00 cm**-1
   4:         0.00 cm**-1
   5:         0.00 cm**-1
   6:       103.09 cm**-1
   7:       107.28 cm**-1
   8:       142.54 cm**-1
   9:       152.47 cm**-1
  10:       163.05 cm**-1
  11:       179.12 cm**-1
  12:       275.16 cm**-1
  13:       277.52 cm**-1
  14:       292.58 cm**-1
  15:       302.19 cm**-1
  16:       325.46 cm**-1
  17:       538.19 cm**-1
  18:       577.42 cm**-1
  19:       621.87 cm**-1
  20:       644.00 cm**-1
  21:       693.85 cm**-1
  22:       742.45 cm**-1
  23:       861.11 cm**-1
  24:       862.20 cm**-1
  25:       977.52 cm**-1
  26:      1045.42 cm**-1
  27:      1068.50 cm**-1
  28:      1082.03 cm**-1
  29:      1106.79 cm**-1
  30:      1118.57 cm**-1
  31:      1142.35 cm**-1
  32:      1147.14 cm**-1
  33:      1193.90 cm**-1
  34:      1233.64 cm**-1
  35:      1282.69 cm**-1
  36:      1395.84 cm**-1
  37:      1401.18 cm**-1
  38:      1416.94 cm**-1
  39:      1435.43 cm**-1
  40:      1436.99 cm**-1
  41:      1438.29 cm**-1
  42:      1442.74 cm**-1
  43:      1444.59 cm**-1
  44:      1446.04 cm**-1
  45:      1447.36 cm**-1
  46:      1450.24 cm**-1
  47:      1459.02 cm**-1
  48:      1473.00 cm**-1
  49:      1528.56 cm**-1
  50:      1545.24 cm**-1
  51:      1674.61 cm**-1
  52:      1740.99 cm**-1
  53:      3075.50 cm**-1
  54:      3076.42 cm**-1
  55:      3096.63 cm**-1
  56:      3097.05 cm**-1
  57:      3169.07 cm**-1
  58:      3169.26 cm**-1
  59:      3203.88 cm**-1
  60:      3206.34 cm**-1
  61:      3211.42 cm**-1
  62:      3211.53 cm**-1
  63:      3228.18 cm**-1
  64:      3228.34 cm**-1
  65:      3301.06 cm**-1

IR SPECTRUM
-----------

 Mode   freq       eps      Int      T**2         TX        TY        TZ
       cm**-1   L/(mol*cm) km/mol    a.u.
----------------------------------------------------------------------------
  6:    103.09   0.000082    0.41  0.000248  (-0.000326 -0.000127 -0.015733)
  7:    107.28   0.000001    0.01  0.000003  (-0.000401  0.000704 -0.001568)
  8:    142.54   0.000003    0.02  0.000007  ( 0.000722 -0.001537  0.002037)
  9:    152.47   0.000308    1.56  0.000631  (-0.000230 -0.000459  0.025114)
 10:    163.05   0.000013    0.07  0.000025  (-0.001536  0.000836  0.004648)
 11:    179.12   0.001927    9.74  0.003358  ( 0.001870 -0.001242  0.057904)
 12:    275.16   0.000236    1.19  0.000268  (-0.011372  0.011594  0.002013)
 13:    277.52   0.000237    1.20  0.000267  ( 0.012665  0.010302  0.000244)
 14:    292.58   0.000230    1.16  0.000245  ( 0.000077 -0.012937  0.008829)
 15:    302.19   0.001919    9.70  0.001982  ( 0.001617  0.000530  0.044489)
 16:    325.46   0.000001    0.00  0.000001  (-0.000130 -0.000135  0.000866)
 17:    538.19   0.000451    2.28  0.000261  (-0.016161  0.000038  0.000472)
 18:    577.42   0.000577    2.91  0.000312  (-0.017647 -0.000039  0.000404)
 19:    621.87   0.000472    2.39  0.000237  ( 0.000014  0.015367  0.000909)
 20:    644.00   0.003718   18.79  0.001802  (-0.001194  0.001422 -0.042405)
 21:    693.85   0.000000    0.00  0.000000  (-0.000286  0.000158 -0.000117)
 22:    742.45   0.000518    2.62  0.000218  ( 0.000082 -0.014746 -0.000470)
 23:    861.11   0.003023   15.28  0.001095  ( 0.009148 -0.001201  0.031785)
 24:    862.20   0.001918    9.69  0.000694  ( 0.023298  0.000467 -0.012300)
 25:    977.52   0.000119    0.60  0.000038  (-0.000018  0.006159 -0.000049)
 26:   1045.42   0.001741    8.80  0.000520  (-0.001049  0.000397 -0.022771)
 27:   1068.50   0.000011    0.06  0.000003  (-0.001530  0.000006 -0.000918)
 28:   1082.03   0.002299   11.62  0.000663  ( 0.025747 -0.000169 -0.000345)
 29:   1106.79   0.000296    1.49  0.000083  ( 0.000557 -0.009099 -0.000513)
 30:   1118.57   0.002631   13.29  0.000734  ( 0.027078  0.000508 -0.000647)
 31:   1142.35   0.000006    0.03  0.000002  (-0.001180  0.000076 -0.000371)
 32:   1147.14   0.000140    0.71  0.000038  (-0.000071 -0.000810  0.006119)
 33:   1193.90   0.000017    0.09  0.000004  (-0.000104  0.002099  0.000040)
 34:   1233.64   0.015779   79.74  0.003992  (-0.063159  0.000002  0.001564)
 35:   1282.69   0.000652    3.30  0.000159  (-0.012593 -0.000134  0.000185)
 36:   1395.84   0.000145    0.73  0.000032  ( 0.001556 -0.005331 -0.001243)
 37:   1401.18   0.001580    7.99  0.000352  ( 0.018727  0.000508 -0.001012)
 38:   1416.94   0.000236    1.19  0.000052  (-0.000451 -0.006792 -0.002385)
 39:   1435.43   0.005795   29.28  0.001260  ( 0.035245 -0.000871 -0.004103)
 40:   1436.99   0.001688    8.53  0.000366  (-0.000961  0.001960  0.019018)
 41:   1438.29   0.000307    1.55  0.000067  ( 0.006157 -0.004095 -0.003443)
 42:   1442.74   0.001114    5.63  0.000241  ( 0.014586  0.005041  0.001690)
 43:   1444.59   0.004443   22.45  0.000960  (-0.002655 -0.000789 -0.030857)
 44:   1446.04   0.005207   26.32  0.001124  ( 0.003002 -0.014301 -0.030170)
 45:   1447.36   0.007376   37.28  0.001590  ( 0.004052  0.037554  0.012792)
 46:   1450.24   0.009938   50.22  0.002139  (-0.004648  0.031134 -0.033876)
 47:   1459.02   0.000030    0.15  0.000006  (-0.001835 -0.000664  0.001591)
 48:   1473.00   0.004847   24.50  0.001027  (-0.000383 -0.032009 -0.001486)
 49:   1528.56   0.000011    0.06  0.000002  ( 0.001496  0.000071  0.000141)
 50:   1545.24   0.000122    0.61  0.000025  ( 0.000186 -0.004945 -0.000240)
 51:   1674.61   0.033851  171.07  0.006308  ( 0.079399  0.000071 -0.001987)
 52:   1740.99   0.007290   36.84  0.001307  (-0.000070  0.036132  0.001059)
 53:   3075.50   0.002898   14.65  0.000294  ( 0.017145 -0.000131 -0.000262)
 54:   3076.42   0.001261    6.37  0.000128  ( 0.000242  0.011302  0.000359)
 55:   3096.63   0.003980   20.12  0.000401  ( 0.019954  0.001685 -0.000378)
 56:   3097.05   0.000670    3.38  0.000067  (-0.006071  0.005534  0.000056)
 57:   3169.07   0.001138    5.75  0.000112  ( 0.000152 -0.000322  0.010580)
 58:   3169.26   0.000003    0.01  0.000000  (-0.000111 -0.000084  0.000517)
 59:   3203.88   0.000266    1.34  0.000026  ( 0.005081 -0.000146 -0.000262)
 60:   3206.34   0.000617    3.12  0.000060  (-0.000106 -0.007746 -0.000282)
 61:   3211.42   0.000113    0.57  0.000011  (-0.000011 -0.000113  0.003314)
 62:   3211.53   0.000098    0.50  0.000010  (-0.000081  0.000052 -0.003088)
 63:   3228.18   0.000013    0.06  0.000001  (-0.000443 -0.001004  0.000140)
 64:   3228.34   0.000009    0.04  0.000001  ( 0.000535 -0.000747 -0.000114)
 65:   3301.06   0.011125   56.22  0.001052  (-0.000010 -0.032413 -0.001061)

--------------------------
THERMOCHEMISTRY AT 298.15K
--------------------------

Temperature         ... 298.15 K
Pressure            ... 1.00 atm
Total Mass          ... 125.19 AMU

Throughout the following assumptions are being made:
  (1) The electronic state is orbitally nondegenerate
  (2) There are no thermally accessible electronically excited states
  (3) Hindered rotations indicated by low frequency modes are not
      treated as such but are treated as vibrations and this may
      cause some error
  (4) All equations used are the standard statistical mechanics
      equations for an ideal gas
  (5) All vibrations are strictly harmonic

freq.     103.09  E(vib)   ...       0.46
freq.     107.28  E(vib)   ...       0.45
freq.     142.54  E(vib)   ...       0.41
freq.     152.47  E(vib)   ...       0.40
freq.     163.05  E(vib)   ...       0.39
freq.     179.12  E(vib)   ...       0.37
freq.     275.16  E(vib)   ...       0.28
freq.     277.52  E(vib)   ...       0.28
freq.     292.58  E(vib)   ...       0.27
freq.     302.19  E(vib)   ...       0.26
freq.     325.46  E(vib)   ...       0.24
freq.     538.19  E(vib)   ...       0.12
freq.     577.42  E(vib)   ...       0.11
freq.     621.87  E(vib)   ...       0.09
freq.     644.00  E(vib)   ...       0.09
freq.     693.85  E(vib)   ...       0.07
freq.     742.45  E(vib)   ...       0.06
freq.     861.11  E(vib)   ...       0.04
freq.     862.20  E(vib)   ...       0.04
freq.     977.52  E(vib)   ...       0.03
freq.    1045.42  E(vib)   ...       0.02
freq.    1068.50  E(vib)   ...       0.02
freq.    1082.03  E(vib)   ...       0.02
freq.    1106.79  E(vib)   ...       0.02
freq.    1118.57  E(vib)   ...       0.01
freq.    1142.35  E(vib)   ...       0.01
freq.    1147.14  E(vib)   ...       0.01
freq.    1193.90  E(vib)   ...       0.01
freq.    1233.64  E(vib)   ...       0.01
freq.    1282.69  E(vib)   ...       0.01
freq.    1395.84  E(vib)   ...       0.00
freq.    1401.18  E(vib)   ...       0.00
freq.    1416.94  E(vib)   ...       0.00
freq.    1435.43  E(vib)   ...       0.00
freq.    1436.99  E(vib)   ...       0.00
freq.    1438.29  E(vib)   ...       0.00
freq.    1442.74  E(vib)   ...       0.00
freq.    1444.59  E(vib)   ...       0.00
freq.    1446.04  E(vib)   ...       0.00
freq.    1447.36  E(vib)   ...       0.00
freq.    1450.24  E(vib)   ...       0.00
freq.    1459.02  E(vib)   ...       0.00
freq.    1473.00  E(vib)   ...       0.00
freq.    1528.56  E(vib)   ...       0.00
freq.    1545.24  E(vib)   ...       0.00
freq.    1674.61  E(vib)   ...       0.00
freq.    1740.99  E(vib)   ...       0.00
freq.    3075.50  E(vib)   ...       0.00
freq.    3076.42  E(vib)   ...       0.00
freq.    3096.63  E(vib)   ...       0.00
freq.    3097.05  E(vib)   ...       0.00
freq.    3169.07  E(vib)   ...       0.00
freq.    3169.26  E(vib)   ...       0.00
freq.    3203.88  E(vib)   ...       0.00
freq.    3206.34  E(vib)   ...       0.00
freq.    3211.42  E(vib)   ...       0.00
freq.    3211.53  E(vib)   ...       0.00
freq.    3228.18  E(vib)   ...       0.00
freq.    3228.34  E(vib)   ...       0.00
freq.    3301.06  E(vib)   ...       0.00

------------
INNER ENERGY
------------

The inner energy is: U= E(el) + E(ZPE) + E(vib) + E(rot) + E(trans)
    E(el)   - is the total energy from the electronic structure calculation
              = E(kin-el) + E(nuc-el) + E(el-el) + E(nuc-nuc)
    E(ZPE)  - the the zero temperature vibrational energy from the frequency calculation
    E(vib)  - the the finite temperature correction to E(ZPE) due to population
              of excited vibrational states
    E(rot)  - is the rotational thermal energy
    E(trans)- is the translational thermal energy

Summary of contributions to the inner energy U:
Electronic energy                ...   -383.58776885 Eh
Zero point energy                ...      0.19754403 Eh     123.96 kcal/mol
Thermal vibrational correction   ...      0.00744503 Eh       4.67 kcal/mol
Thermal rotational correction    ...      0.00141627 Eh       0.89 kcal/mol
Thermal translational correction ...      0.00141627 Eh       0.89 kcal/mol
-----------------------------------------------------------------------
Total thermal energy                   -383.37994725 Eh

Summary of corrections to the electronic energy:
(perhaps to be used in another calculation)
Total thermal correction                  0.01027757 Eh       6.45 kcal/mol
Non-thermal (ZPE) correction              0.19754403 Eh     123.96 kcal/mol
-----------------------------------------------------------------------
Total correction                          0.20782160 Eh     130.41 kcal/mol

--------
ENTHALPY
--------

The enthalpy is H = U + kB*T
                kB is Boltzmann's constant
Total free energy                 ...   -383.37994725 Eh
Thermal Enthalpy correction       ...      0.00094421 Eh       0.59 kcal/mol
-----------------------------------------------------------------------
Total Enthalpy                    ...   -383.37900304 Eh

Note: Only C1 symmetry has been detected, increase convergence thresholds
      if your molecule has a higher symmetry. Symmetry factor of 1.0 is
      used for the rotational entropy correction.

Note: Rotational entropy computed according to Herzberg
Infrared and Raman Spectra, Chapter V,1, Van Nostrand Reinhold, 1945
Point Group:  C1, Symmetry Number:   1
Rotational constants in cm-1:     0.081272     0.050369     0.031855

Vibrational entropy computed according to the QRRHO of S. Grimme
Chem.Eur.J. 2012 18 9955

-------
ENTROPY
-------

The entropy contributions are T*S = T*(S(el)+S(vib)+S(rot)+S(trans))
     S(el)   - electronic entropy
     S(vib)  - vibrational entropy
     S(rot)  - rotational entropy
     S(trans)- translational entropy
The entropies will be listed as multiplied by the temperature to get
units of energy

Electronic entropy                ...      0.00000000 Eh      0.00 kcal/mol
Vibrational entropy               ...      0.01296377 Eh      8.13 kcal/mol
Rotational entropy                ...      0.01373362 Eh      8.62 kcal/mol
Translational entropy             ...      0.01918948 Eh     12.04 kcal/mol
-----------------------------------------------------------------------
Final entropy term                ...      0.04588687 Eh     28.79 kcal/mol

In case the symmetry of your molecule has not been determined correctly
or in case you have a reason to use a different symmetry number we print
out the resulting rotational entropy values for sn=1,12 :
 --------------------------------------------------------
|  sn= 1 | S(rot)=       0.01373362 Eh      8.62 kcal/mol|
|  sn= 2 | S(rot)=       0.01307916 Eh      8.21 kcal/mol|
|  sn= 3 | S(rot)=       0.01269633 Eh      7.97 kcal/mol|

                             ****ORCA TERMINATED NORMALLY****
TOTAL RUN TIME: 0 days 1 hours 48 minutes 55 seconds 346 msec
