                         Program Version 5.0.4 -  RELEASE  -
|  1> # ORCA 5.0.4 - /users/bwb16179/postgrad/2024_03/DFT_Crest_Conformers/Opt/prot/2_prot_aq_1.inp # write input file
|  2> # Basic Mode
|  3> #
|  4> ! Opt Freq wB97X Def2-SVP D4 SlowConv TightSCF Defgrid2 Def2/J RIJCOSX CPCM(Water)
|  5>
|  6>
|  7>
|  8> %maxcore 4500
|  9>
| 10> %geom
| 11> Maxiter 150
| 12> END
| 13>
| 14> * xyzfile 1 1 2_prot_aq_1.xyz
| 15>
| 16>                          ****END OF INPUT****
 Total Charge           Charge          ....    1
 Multiplicity           Mult            ....    1
 Number of Electrons    NEL             ....   68
Dispersion correction           -0.002873783
FINAL SINGLE POINT ENERGY      -383.585664327327
Dispersion correction            ... Starting D4
Dispersion correction           -0.002865403
FINAL SINGLE POINT ENERGY      -383.587640224440
Dispersion correction            ... Starting D4
Dispersion correction           -0.002864017
FINAL SINGLE POINT ENERGY      -383.587732646911
Dispersion correction            ... Starting D4
Dispersion correction           -0.002863665
FINAL SINGLE POINT ENERGY      -383.587759208938
Dispersion correction            ... Starting D4
Dispersion correction           -0.002863825
FINAL SINGLE POINT ENERGY      -383.587760950040
Dispersion correction            ... Starting D4
                    ***********************HURRAY********************

CARTESIAN COORDINATES (ANGSTROEM)
---------------------------------
  N     -1.080153   -0.649572   -0.000025
  C     -0.000003   -1.423707    0.000015
  N      1.080145   -0.649569    0.000008
  C      0.684721    0.679475   -0.000062
  C     -0.684733    0.679473   -0.000066
  C     -2.460057   -1.114524   -0.000029
  C      2.460051   -1.114515    0.000002
  H     -2.972610   -0.743974    0.897539
  H     -2.465195   -2.210613    0.000006
  H     -2.972583   -0.744029   -0.897635
  H      2.972292   -0.745010   -0.898178
  H      2.465194   -2.210604    0.001275
  H      2.972884   -0.742972    0.896995
  C      1.668292    1.797147   -0.000057
  C     -1.668306    1.797143   -0.000084
  H     -1.140786    2.759466    0.000017
  H     -2.313588    1.757442    0.890994
  H     -2.313462    1.757545   -0.891258
  H      1.140770    2.759469   -0.000606
  H      2.313867    1.757183   -0.890908
  H      2.313154    1.757815    0.891344
  H     -0.000002   -2.513812    0.000072

 Multiplicity           Mult            ....    1
 Number of Electrons    NEL             ....   68
 Basis Dimension        Dim             ....  191

ORBITAL ENERGIES
----------------

  NO   OCC          E(Eh)            E(eV)
   0   2.0000     -14.506603      -394.7447
   1   2.0000     -14.506584      -394.7442
   2   2.0000     -10.378719      -282.4193
   3   2.0000     -10.332184      -281.1530
   4   2.0000     -10.331685      -281.1394
   5   2.0000     -10.326103      -280.9875
   6   2.0000     -10.326082      -280.9870
   7   2.0000     -10.287003      -279.9236
   8   2.0000     -10.286951      -279.9222
   9   2.0000      -1.210807       -32.9477
  10   2.0000      -1.090584       -29.6763
  11   2.0000      -0.953798       -25.9542
  12   2.0000      -0.911054       -24.7910
  13   2.0000      -0.876367       -23.8472
  14   2.0000      -0.825002       -22.4494
  15   2.0000      -0.823740       -22.4151
  16   2.0000      -0.732603       -19.9351
  17   2.0000      -0.723433       -19.6856
  18   2.0000      -0.661627       -18.0038
  19   2.0000      -0.641988       -17.4694
  20   2.0000      -0.602983       -16.4080
  21   2.0000      -0.591677       -16.1004
  22   2.0000      -0.581837       -15.8326
  23   2.0000      -0.553429       -15.0596
  24   2.0000      -0.538749       -14.6601
  25   2.0000      -0.538560       -14.6550
  26   2.0000      -0.529887       -14.4190
  27   2.0000      -0.522936       -14.2298
  28   2.0000      -0.508898       -13.8478
  29   2.0000      -0.506855       -13.7922
  30   2.0000      -0.504221       -13.7206
  31   2.0000      -0.496987       -13.5237
  32   2.0000      -0.409017       -11.1299
  33   2.0000      -0.348763        -9.4903
  34   0.0000       0.067368         1.8332
  35   0.0000       0.107611         2.9282
  36   0.0000       0.138460         3.7677
  37   0.0000       0.153816         4.1856
  38   0.0000       0.167659         4.5622

MULLIKEN ATOMIC CHARGES
-----------------------
   0 N :   -0.221524
   1 C :    0.208851
   2 N :   -0.221524
   3 C :   -0.089627
   4 C :   -0.089631
   5 C :    0.079851
   6 C :    0.079852
   7 H :    0.092090
   8 H :    0.093147
   9 H :    0.092090
  10 H :    0.092111
  11 H :    0.093147
  12 H :    0.092069
  13 C :    0.077743
  14 C :    0.077742
  15 H :    0.057493
  16 H :    0.073008
  17 H :    0.073014
  18 H :    0.057492
  19 H :    0.072993
  20 H :    0.073030
  21 H :    0.136583
Sum of atomic charges:    1.0000000

LOEWDIN ATOMIC CHARGES
----------------------
   0 N :    0.089158
   1 C :    0.120481
   2 N :    0.089158
   3 C :   -0.006774
   4 C :   -0.006774
   5 C :    0.053997
   6 C :    0.053997
   7 H :    0.051773
   8 H :    0.055568
   9 H :    0.051773
  10 H :    0.051774
  11 H :    0.055568
  12 H :    0.051773
  13 C :   -0.050574
  14 C :   -0.050574
  15 H :    0.053466
  16 H :    0.053382
  17 H :    0.053382
  18 H :    0.053466
  19 H :    0.053379
  20 H :    0.053385
  21 H :    0.069216

  Mayer bond orders larger than 0.100000
B(  0-N ,  1-C ) :   1.3540 B(  0-N ,  4-C ) :   1.1608 B(  0-N ,  5-C ) :   0.9102
B(  1-C ,  2-N ) :   1.3540 B(  1-C , 21-H ) :   0.9660 B(  2-N ,  3-C ) :   1.1608
B(  2-N ,  6-C ) :   0.9102 B(  3-C ,  4-C ) :   1.6287 B(  3-C , 13-C ) :   1.0927
B(  4-C , 14-C ) :   1.0927 B(  5-C ,  7-H ) :   0.9717 B(  5-C ,  8-H ) :   0.9694
B(  5-C ,  9-H ) :   0.9717 B(  6-C , 10-H ) :   0.9717 B(  6-C , 11-H ) :   0.9694
B(  6-C , 12-H ) :   0.9717 B( 13-C , 18-H ) :   0.9421 B( 13-C , 19-H ) :   0.9474
B( 13-C , 20-H ) :   0.9474 B( 14-C , 15-H ) :   0.9421 B( 14-C , 16-H ) :   0.9474
B( 14-C , 17-H ) :   0.9474

Dispersion correction           -0.002863907
FINAL SINGLE POINT ENERGY      -383.587761145889

DIPOLE MOMENT
-------------
                                X             Y             Z
Electronic contribution:      0.00000      -3.55331       0.00003
Nuclear contribution   :     -0.00000       2.45966       0.00006
                        -----------------------------------------
Total Dipole Moment    :      0.00000      -1.09366       0.00009
                        -----------------------------------------
Magnitude (a.u.)       :      1.09366
Magnitude (Debye)      :      2.77985

Dispersion correction in the Hessian             ... Starting D4

VIBRATIONAL FREQUENCIES
-----------------------

Scaling factor for frequencies =  1.000000000  (already applied!)

   0:         0.00 cm**-1
   1:         0.00 cm**-1
   2:         0.00 cm**-1
   3:         0.00 cm**-1
   4:         0.00 cm**-1
   5:         0.00 cm**-1
   6:        96.87 cm**-1
   7:        99.88 cm**-1
   8:       135.73 cm**-1
   9:       155.22 cm**-1
  10:       158.60 cm**-1
  11:       173.58 cm**-1
  12:       274.52 cm**-1
  13:       275.14 cm**-1
  14:       291.00 cm**-1
  15:       302.03 cm**-1
  16:       324.12 cm**-1
  17:       537.52 cm**-1
  18:       577.33 cm**-1
  19:       621.67 cm**-1
  20:       643.46 cm**-1
  21:       693.99 cm**-1
  22:       742.36 cm**-1
  23:       860.43 cm**-1
  24:       861.58 cm**-1
  25:       977.27 cm**-1
  26:      1046.37 cm**-1
  27:      1068.97 cm**-1
  28:      1081.27 cm**-1
  29:      1105.86 cm**-1
  30:      1118.26 cm**-1
  31:      1140.71 cm**-1
  32:      1145.49 cm**-1
  33:      1193.80 cm**-1
  34:      1233.43 cm**-1
  35:      1282.59 cm**-1
  36:      1396.08 cm**-1
  37:      1401.53 cm**-1
  38:      1417.01 cm**-1
  39:      1434.51 cm**-1
  40:      1436.93 cm**-1
  41:      1437.56 cm**-1
  42:      1442.40 cm**-1
  43:      1444.16 cm**-1
  44:      1445.27 cm**-1
  45:      1445.86 cm**-1
  46:      1447.92 cm**-1
  47:      1458.86 cm**-1
  48:      1472.89 cm**-1
  49:      1528.36 cm**-1
  50:      1545.07 cm**-1
  51:      1674.45 cm**-1
  52:      1741.15 cm**-1
  53:      3075.44 cm**-1
  54:      3076.46 cm**-1
  55:      3096.56 cm**-1
  56:      3096.91 cm**-1
  57:      3169.12 cm**-1
  58:      3169.30 cm**-1
  59:      3203.55 cm**-1
  60:      3206.39 cm**-1
  61:      3211.45 cm**-1
  62:      3211.46 cm**-1
  63:      3228.23 cm**-1
  64:      3228.28 cm**-1
  65:      3300.83 cm**-1

IR SPECTRUM
-----------

 Mode   freq       eps      Int      T**2         TX        TY        TZ
       cm**-1   L/(mol*cm) km/mol    a.u.
----------------------------------------------------------------------------
  6:     96.87   0.000057    0.29  0.000185  (-0.000016 -0.000014  0.013586)
  7:     99.88   0.000000    0.00  0.000000  (-0.000014 -0.000015  0.000032)
  8:    135.73   0.000000    0.00  0.000000  (-0.000014 -0.000013  0.000002)
  9:    155.22   0.000291    1.47  0.000585  (-0.000029 -0.000003 -0.024186)
 10:    158.60   0.000000    0.00  0.000000  (-0.000020 -0.000014 -0.000007)
 11:    173.58   0.001946    9.84  0.003499  ( 0.000009 -0.000000 -0.059154)
 12:    274.52   0.000211    1.07  0.000240  ( 0.000029 -0.015492  0.000020)
 13:    275.14   0.000262    1.32  0.000297  ( 0.017232  0.000025 -0.000025)
 14:    291.00   0.000150    0.76  0.000161  (-0.000000 -0.012670 -0.000049)
 15:    302.03   0.002041   10.31  0.002109  (-0.000007  0.000007 -0.045920)
 16:    324.12   0.000000    0.00  0.000000  (-0.000006  0.000000  0.000000)
 17:    537.52   0.000447    2.26  0.000260  (-0.016113 -0.000000 -0.000007)
 18:    577.33   0.000573    2.90  0.000310  (-0.017606 -0.000000 -0.000003)
 19:    621.67   0.000467    2.36  0.000235  (-0.000000  0.015318 -0.000013)
 20:    643.46   0.003719   18.79  0.001803  (-0.000002  0.000006  0.042467)
 21:    693.99   0.000000    0.00  0.000000  ( 0.000001 -0.000000  0.000000)
 22:    742.36   0.000516    2.61  0.000217  ( 0.000000 -0.014734 -0.000002)
 23:    860.43   0.003215   16.25  0.001166  (-0.000120  0.000005  0.034150)
 24:    861.58   0.001739    8.79  0.000630  (-0.025095 -0.000000 -0.000160)
 25:    977.27   0.000121    0.61  0.000039  (-0.000000  0.006212  0.000001)
 26:   1046.37   0.001753    8.86  0.000523  ( 0.000010  0.000009  0.022863)
 27:   1068.97   0.000000    0.00  0.000000  (-0.000002  0.000008  0.000000)
 28:   1081.27   0.002334   11.79  0.000674  ( 0.025953  0.000000 -0.000000)
 29:   1105.86   0.000281    1.42  0.000079  (-0.000000 -0.008904  0.000003)
 30:   1118.26   0.002640   13.34  0.000737  ( 0.027141  0.000000 -0.000005)
 31:   1140.71   0.000000    0.00  0.000000  (-0.000006 -0.000011  0.000000)
 32:   1145.49   0.000134    0.68  0.000037  (-0.000001 -0.000011 -0.006048)
 33:   1193.80   0.000015    0.08  0.000004  ( 0.000000  0.001998  0.000002)
 34:   1233.43   0.015757   79.63  0.003987  (-0.063139 -0.000000  0.000001)
 35:   1282.59   0.000661    3.34  0.000161  ( 0.012679  0.000000  0.000007)
 36:   1396.08   0.000138    0.70  0.000031  (-0.000000  0.005558 -0.000006)
 37:   1401.53   0.001528    7.72  0.000340  ( 0.018443  0.000000 -0.000015)
 38:   1417.01   0.000255    1.29  0.000056  (-0.000000 -0.007501  0.000003)
 39:   1434.51   0.005784   29.23  0.001258  ( 0.035472  0.000000  0.000088)
 40:   1436.93   0.001297    6.55  0.000282  (-0.000127  0.000034 -0.016782)
 41:   1437.56   0.000000    0.00  0.000000  ( 0.000117 -0.000043  0.000002)
 42:   1442.40   0.001411    7.13  0.000305  ( 0.017472 -0.000000  0.000151)
 43:   1444.16   0.000171    0.86  0.000037  ( 0.000004 -0.006052 -0.000499)
 44:   1445.27   0.000001    0.01  0.000000  ( 0.000114  0.000546  0.000029)
 45:   1445.86   0.015314   77.39  0.003305  (-0.000127 -0.000666  0.057487)
 46:   1447.92   0.012024   60.77  0.002592  (-0.000002  0.050903  0.000701)
 47:   1458.86   0.000014    0.07  0.000003  (-0.001711  0.000000  0.000066)
 48:   1472.89   0.004833   24.42  0.001024  ( 0.000000 -0.031998 -0.000003)
 49:   1528.36   0.000013    0.06  0.000003  (-0.001602  0.000000  0.000004)
 50:   1545.07   0.000119    0.60  0.000024  (-0.000000 -0.004904  0.000001)
 51:   1674.45   0.033867  171.15  0.006312  ( 0.079446  0.000000 -0.000005)
 52:   1741.15   0.007281   36.80  0.001305  (-0.000000  0.036125 -0.000002)
 53:   3075.44   0.002896   14.63  0.000294  (-0.017142  0.000001 -0.000002)
 54:   3076.46   0.001266    6.40  0.000128  ( 0.000002  0.011334  0.000001)
 55:   3096.56   0.004323   21.85  0.000436  ( 0.020872  0.000003 -0.000005)
 56:   3096.91   0.000331    1.67  0.000033  (-0.000010  0.005777  0.000005)
 57:   3169.12   0.001148    5.80  0.000113  ( 0.000001  0.000003 -0.010633)
 58:   3169.30   0.000000    0.00  0.000000  ( 0.000001  0.000002 -0.000005)
 59:   3203.55   0.000273    1.38  0.000027  ( 0.005153  0.000000 -0.000001)
 60:   3206.39   0.000623    3.15  0.000061  ( 0.000000 -0.007788 -0.000001)
 61:   3211.45   0.000208    1.05  0.000020  ( 0.000002 -0.000001  0.004491)
 62:   3211.46   0.000000    0.00  0.000000  ( 0.000002 -0.000002 -0.000018)
 63:   3228.23   0.000017    0.08  0.000002  (-0.000004  0.001273  0.000002)
 64:   3228.28   0.000005    0.02  0.000000  ( 0.000687  0.000008  0.000002)
 65:   3300.83   0.011145   56.32  0.001054  ( 0.000000  0.032460 -0.000002)

--------------------------
THERMOCHEMISTRY AT 298.15K
--------------------------

Temperature         ... 298.15 K
Pressure            ... 1.00 atm
Total Mass          ... 125.19 AMU

Throughout the following assumptions are being made:
  (1) The electronic state is orbitally nondegenerate
  (2) There are no thermally accessible electronically excited states
  (3) Hindered rotations indicated by low frequency modes are not
      treated as such but are treated as vibrations and this may
      cause some error
  (4) All equations used are the standard statistical mechanics
      equations for an ideal gas
  (5) All vibrations are strictly harmonic

freq.      96.87  E(vib)   ...       0.46
freq.      99.88  E(vib)   ...       0.46
freq.     135.73  E(vib)   ...       0.42
freq.     155.22  E(vib)   ...       0.40
freq.     158.60  E(vib)   ...       0.39
freq.     173.58  E(vib)   ...       0.38
freq.     274.52  E(vib)   ...       0.28
freq.     275.14  E(vib)   ...       0.28
freq.     291.00  E(vib)   ...       0.27
freq.     302.03  E(vib)   ...       0.26
freq.     324.12  E(vib)   ...       0.25
freq.     537.52  E(vib)   ...       0.12
freq.     577.33  E(vib)   ...       0.11
freq.     621.67  E(vib)   ...       0.09
freq.     643.46  E(vib)   ...       0.09
freq.     693.99  E(vib)   ...       0.07
freq.     742.36  E(vib)   ...       0.06
freq.     860.43  E(vib)   ...       0.04
freq.     861.58  E(vib)   ...       0.04
freq.     977.27  E(vib)   ...       0.03
freq.    1046.37  E(vib)   ...       0.02
freq.    1068.97  E(vib)   ...       0.02
freq.    1081.27  E(vib)   ...       0.02
freq.    1105.86  E(vib)   ...       0.02
freq.    1118.26  E(vib)   ...       0.01
freq.    1140.71  E(vib)   ...       0.01
freq.    1145.49  E(vib)   ...       0.01
freq.    1193.80  E(vib)   ...       0.01
freq.    1233.43  E(vib)   ...       0.01
freq.    1282.59  E(vib)   ...       0.01
freq.    1396.08  E(vib)   ...       0.00
freq.    1401.53  E(vib)   ...       0.00
freq.    1417.01  E(vib)   ...       0.00
freq.    1434.51  E(vib)   ...       0.00
freq.    1436.93  E(vib)   ...       0.00
freq.    1437.56  E(vib)   ...       0.00
freq.    1442.40  E(vib)   ...       0.00
freq.    1444.16  E(vib)   ...       0.00
freq.    1445.27  E(vib)   ...       0.00
freq.    1445.86  E(vib)   ...       0.00
freq.    1447.92  E(vib)   ...       0.00
freq.    1458.86  E(vib)   ...       0.00
freq.    1472.89  E(vib)   ...       0.00
freq.    1528.36  E(vib)   ...       0.00
freq.    1545.07  E(vib)   ...       0.00
freq.    1674.45  E(vib)   ...       0.00
freq.    1741.15  E(vib)   ...       0.00
freq.    3075.44  E(vib)   ...       0.00
freq.    3076.46  E(vib)   ...       0.00
freq.    3096.56  E(vib)   ...       0.00
freq.    3096.91  E(vib)   ...       0.00
freq.    3169.12  E(vib)   ...       0.00
freq.    3169.30  E(vib)   ...       0.00
freq.    3203.55  E(vib)   ...       0.00
freq.    3206.39  E(vib)   ...       0.00
freq.    3211.45  E(vib)   ...       0.00
freq.    3211.46  E(vib)   ...       0.00
freq.    3228.23  E(vib)   ...       0.00
freq.    3228.28  E(vib)   ...       0.00
freq.    3300.83  E(vib)   ...       0.00

------------
INNER ENERGY
------------

The inner energy is: U= E(el) + E(ZPE) + E(vib) + E(rot) + E(trans)
    E(el)   - is the total energy from the electronic structure calculation
              = E(kin-el) + E(nuc-el) + E(el-el) + E(nuc-nuc)
    E(ZPE)  - the the zero temperature vibrational energy from the frequency calculation
    E(vib)  - the the finite temperature correction to E(ZPE) due to population
              of excited vibrational states
    E(rot)  - is the rotational thermal energy
    E(trans)- is the translational thermal energy

Summary of contributions to the inner energy U:
Electronic energy                ...   -383.58776115 Eh
Zero point energy                ...      0.19743282 Eh     123.89 kcal/mol
Thermal vibrational correction   ...      0.00750454 Eh       4.71 kcal/mol
Thermal rotational correction    ...      0.00141627 Eh       0.89 kcal/mol
Thermal translational correction ...      0.00141627 Eh       0.89 kcal/mol
-----------------------------------------------------------------------
Total thermal energy                   -383.37999124 Eh

Summary of corrections to the electronic energy:
(perhaps to be used in another calculation)
Total thermal correction                  0.01033708 Eh       6.49 kcal/mol
Non-thermal (ZPE) correction              0.19743282 Eh     123.89 kcal/mol
-----------------------------------------------------------------------
Total correction                          0.20776990 Eh     130.38 kcal/mol

--------
ENTHALPY
--------

The enthalpy is H = U + kB*T
                kB is Boltzmann's constant
Total free energy                 ...   -383.37999124 Eh
Thermal Enthalpy correction       ...      0.00094421 Eh       0.59 kcal/mol
-----------------------------------------------------------------------
Total Enthalpy                    ...   -383.37904703 Eh

Note: Only C1 symmetry has been detected, increase convergence thresholds
      if your molecule has a higher symmetry. Symmetry factor of 1.0 is
      used for the rotational entropy correction.

Note: Rotational entropy computed according to Herzberg
Infrared and Raman Spectra, Chapter V,1, Van Nostrand Reinhold, 1945
Point Group:  C1, Symmetry Number:   1
Rotational constants in cm-1:     0.081285     0.050364     0.031855

Vibrational entropy computed according to the QRRHO of S. Grimme
Chem.Eur.J. 2012 18 9955

-------
ENTROPY
-------

The entropy contributions are T*S = T*(S(el)+S(vib)+S(rot)+S(trans))
     S(el)   - electronic entropy
     S(vib)  - vibrational entropy
     S(rot)  - rotational entropy
     S(trans)- translational entropy
The entropies will be listed as multiplied by the temperature to get
units of energy

Electronic entropy                ...      0.00000000 Eh      0.00 kcal/mol
Vibrational entropy               ...      0.01311092 Eh      8.23 kcal/mol
Rotational entropy                ...      0.01373359 Eh      8.62 kcal/mol
Translational entropy             ...      0.01918948 Eh     12.04 kcal/mol
-----------------------------------------------------------------------
Final entropy term                ...      0.04603399 Eh     28.89 kcal/mol

In case the symmetry of your molecule has not been determined correctly
or in case you have a reason to use a different symmetry number we print
out the resulting rotational entropy values for sn=1,12 :
 --------------------------------------------------------
|  sn= 1 | S(rot)=       0.01373359 Eh      8.62 kcal/mol|
|  sn= 2 | S(rot)=       0.01307913 Eh      8.21 kcal/mol|
|  sn= 3 | S(rot)=       0.01269630 Eh      7.97 kcal/mol|

                             ****ORCA TERMINATED NORMALLY****
TOTAL RUN TIME: 0 days 0 hours 34 minutes 43 seconds 264 msec
