                         Program Version 5.0.4 -  RELEASE  -
|  1> # ORCA 5.0.4 - /users/bwb16179/postgrad/2024_03/DFT_Crest_Conformers/Opt/prot/2_prot_aq_3.inp # write input file
|  2> # Basic Mode
|  3> #
|  4> ! Opt Freq wB97X Def2-SVP D4 SlowConv TightSCF Defgrid2 Def2/J RIJCOSX CPCM(Water)
|  5>
|  6>
|  7>
|  8> %maxcore 4500
|  9>
| 10> %geom
| 11> Maxiter 150
| 12> END
| 13>
| 14> * xyzfile 1 1 2_prot_aq_3.xyz
| 15>
| 16>                          ****END OF INPUT****
 Total Charge           Charge          ....    1
 Multiplicity           Mult            ....    1
 Number of Electrons    NEL             ....   68
Dispersion correction           -0.002871719
FINAL SINGLE POINT ENERGY      -383.583928174092
Dispersion correction            ... Starting D4
Dispersion correction           -0.002863254
FINAL SINGLE POINT ENERGY      -383.585901319879
Dispersion correction            ... Starting D4
Dispersion correction           -0.002861908
FINAL SINGLE POINT ENERGY      -383.585996433769
Dispersion correction            ... Starting D4
Dispersion correction           -0.002861610
FINAL SINGLE POINT ENERGY      -383.586024380393
Dispersion correction            ... Starting D4
Dispersion correction           -0.002861772
FINAL SINGLE POINT ENERGY      -383.586026933863
Dispersion correction            ... Starting D4
                    ***********************HURRAY********************

CARTESIAN COORDINATES (ANGSTROEM)
---------------------------------
  N     -1.077750   -0.648487    0.000596
  C      0.001932   -1.421593    0.001414
  N      1.084149   -0.648974    0.001447
  C      0.687652    0.681104    0.000466
  C     -0.682450    0.679826    0.000049
  C     -2.457429   -1.114239    0.001072
  C      2.454550   -1.150717   -0.002186
  H     -2.461492   -2.210297   -0.003094
  H     -2.970854   -0.740406   -0.894554
  H     -2.968478   -0.747009    0.900806
  H      2.619550   -1.783778    0.878747
  H      3.143228   -0.300238    0.031107
  H      2.636497   -1.727904   -0.917648
  C      1.652913    1.815934   -0.000342
  C     -1.668535    1.795543   -0.000691
  H     -2.314653    1.754025    0.889683
  H     -2.312775    1.754413   -0.892456
  H     -1.144482    2.759604    0.000033
  H      2.296930    1.795326    0.892022
  H      1.103348    2.765843   -0.000516
  H      2.296569    1.794410   -0.892933
  H      0.001265   -2.511613    0.002125

 Multiplicity           Mult            ....    1
 Number of Electrons    NEL             ....   68
 Basis Dimension        Dim             ....  191

ORBITAL ENERGIES
----------------

  NO   OCC          E(Eh)            E(eV)
   0   2.0000     -14.507281      -394.7632
   1   2.0000     -14.506252      -394.7352
   2   2.0000     -10.377454      -282.3849
   3   2.0000     -10.333429      -281.1869
   4   2.0000     -10.331418      -281.1322
   5   2.0000     -10.326250      -280.9915
   6   2.0000     -10.325267      -280.9648
   7   2.0000     -10.287233      -279.9299
   8   2.0000     -10.286969      -279.9227
   9   2.0000      -1.210441       -32.9378
  10   2.0000      -1.090121       -29.6637
  11   2.0000      -0.954096       -25.9623
  12   2.0000      -0.910150       -24.7664
  13   2.0000      -0.876301       -23.8453
  14   2.0000      -0.825181       -22.4543
  15   2.0000      -0.823791       -22.4165
  16   2.0000      -0.732395       -19.9295
  17   2.0000      -0.723043       -19.6750
  18   2.0000      -0.661761       -18.0074
  19   2.0000      -0.641502       -17.4561
  20   2.0000      -0.604137       -16.4394
  21   2.0000      -0.591385       -16.0924
  22   2.0000      -0.580587       -15.7986
  23   2.0000      -0.553632       -15.0651
  24   2.0000      -0.541103       -14.7242
  25   2.0000      -0.538786       -14.6611
  26   2.0000      -0.528331       -14.3766
  27   2.0000      -0.524425       -14.2703
  28   2.0000      -0.509999       -13.8778
  29   2.0000      -0.504766       -13.7354
  30   2.0000      -0.502017       -13.6606
  31   2.0000      -0.497732       -13.5440
  32   2.0000      -0.409217       -11.1354
  33   2.0000      -0.348382        -9.4799
  34   0.0000       0.062257         1.6941
  35   0.0000       0.108496         2.9523
  36   0.0000       0.139488         3.7957
  37   0.0000       0.156581         4.2608
  38   0.0000       0.169819         4.6210

MULLIKEN ATOMIC CHARGES
-----------------------
   0 N :   -0.216191
   1 C :    0.216875
   2 N :   -0.225191
   3 C :   -0.085332
   4 C :   -0.092425
   5 C :    0.079912
   6 C :    0.076727
   7 H :    0.093425
   8 H :    0.092369
   9 H :    0.092525
  10 H :    0.095315
  11 H :    0.085690
  12 H :    0.095668
  13 C :    0.062926
  14 C :    0.077819
  15 H :    0.072931
  16 H :    0.073027
  17 H :    0.057040
  18 H :    0.079347
  19 H :    0.055560
  20 H :    0.078888
  21 H :    0.133095
Sum of atomic charges:    1.0000000

LOEWDIN ATOMIC CHARGES
----------------------
   0 N :    0.092140
   1 C :    0.123067
   2 N :    0.086002
   3 C :   -0.005456
   4 C :   -0.008790
   5 C :    0.054234
   6 C :    0.054506
   7 H :    0.055638
   8 H :    0.052012
   9 H :    0.052013
  10 H :    0.053557
  11 H :    0.051444
  12 H :    0.053259
  13 C :   -0.052757
  14 C :   -0.050547
  15 H :    0.053271
  16 H :    0.053289
  17 H :    0.053165
  18 H :    0.053521
  19 H :    0.053700
  20 H :    0.053501
  21 H :    0.069230

  Mayer bond orders larger than 0.100000
B(  0-N ,  1-C ) :   1.3581 B(  0-N ,  4-C ) :   1.1613 B(  0-N ,  5-C ) :   0.9101
B(  1-C ,  2-N ) :   1.3490 B(  1-C , 21-H ) :   0.9686 B(  2-N ,  3-C ) :   1.1646
B(  2-N ,  6-C ) :   0.9014 B(  3-C ,  4-C ) :   1.6231 B(  3-C , 13-C ) :   1.0916
B(  4-C , 14-C ) :   1.0926 B(  5-C ,  7-H ) :   0.9694 B(  5-C ,  8-H ) :   0.9714
B(  5-C ,  9-H ) :   0.9715 B(  6-C , 10-H ) :   0.9740 B(  6-C , 11-H ) :   0.9695
B(  6-C , 12-H ) :   0.9742 B( 13-C , 18-H ) :   0.9478 B( 13-C , 19-H ) :   0.9407
B( 13-C , 20-H ) :   0.9482 B( 14-C , 15-H ) :   0.9475 B( 14-C , 16-H ) :   0.9475
B( 14-C , 17-H ) :   0.9420

Dispersion correction           -0.002861884
FINAL SINGLE POINT ENERGY      -383.586028055911

DIPOLE MOMENT
-------------
                                X             Y             Z
Electronic contribution:      0.04784      -3.54043       0.00803
Nuclear contribution   :     -0.05868       2.44467      -0.00813
                        -----------------------------------------
Total Dipole Moment    :     -0.01083      -1.09576      -0.00010
                        -----------------------------------------
Magnitude (a.u.)       :      1.09582
Magnitude (Debye)      :      2.78535

Dispersion correction in the Hessian             ... Starting D4

VIBRATIONAL FREQUENCIES
-----------------------

Scaling factor for frequencies =  1.000000000  (already applied!)

   0:         0.00 cm**-1
   1:         0.00 cm**-1
   2:         0.00 cm**-1
   3:         0.00 cm**-1
   4:         0.00 cm**-1
   5:         0.00 cm**-1
   6:      -143.95 cm**-1 ***imaginary mode***
   7:        98.76 cm**-1
   8:       132.86 cm**-1
   9:       152.76 cm**-1
  10:       170.40 cm**-1
  11:       198.50 cm**-1
  12:       275.14 cm**-1
  13:       288.83 cm**-1
  14:       294.50 cm**-1
  15:       294.89 cm**-1
  16:       330.69 cm**-1
  17:       534.71 cm**-1
  18:       577.66 cm**-1
  19:       621.70 cm**-1
  20:       641.95 cm**-1
  21:       694.16 cm**-1
  22:       742.00 cm**-1
  23:       858.69 cm**-1
  24:       863.26 cm**-1
  25:       975.65 cm**-1
  26:      1046.99 cm**-1
  27:      1070.30 cm**-1
  28:      1082.80 cm**-1
  29:      1098.22 cm**-1
  30:      1121.07 cm**-1
  31:      1137.34 cm**-1
  32:      1143.79 cm**-1
  33:      1192.31 cm**-1
  34:      1230.56 cm**-1
  35:      1280.91 cm**-1
  36:      1398.71 cm**-1
  37:      1401.38 cm**-1
  38:      1417.02 cm**-1
  39:      1431.47 cm**-1
  40:      1437.21 cm**-1
  41:      1440.52 cm**-1
  42:      1441.42 cm**-1
  43:      1442.52 cm**-1
  44:      1445.42 cm**-1
  45:      1451.60 cm**-1
  46:      1453.57 cm**-1
  47:      1459.22 cm**-1
  48:      1474.12 cm**-1
  49:      1525.46 cm**-1
  50:      1540.36 cm**-1
  51:      1671.06 cm**-1
  52:      1736.30 cm**-1
  53:      3075.91 cm**-1
  54:      3077.97 cm**-1
  55:      3097.13 cm**-1
  56:      3106.91 cm**-1
  57:      3169.14 cm**-1
  58:      3172.01 cm**-1
  59:      3201.64 cm**-1
  60:      3206.68 cm**-1
  61:      3212.26 cm**-1
  62:      3218.92 cm**-1
  63:      3228.71 cm**-1
  64:      3243.88 cm**-1
  65:      3299.66 cm**-1

IR SPECTRUM
-----------

 Mode   freq       eps      Int      T**2         TX        TY        TZ
       cm**-1   L/(mol*cm) km/mol    a.u.
----------------------------------------------------------------------------
  7:     98.76   0.000030    0.15  0.000095  (-0.000037  0.000060  0.009728)
  8:    132.86   0.000001    0.00  0.000002  ( 0.000162 -0.000117  0.001255)
  9:    152.76   0.000180    0.91  0.000368  ( 0.000158 -0.000143  0.019186)
 10:    170.40   0.001855    9.38  0.003398  (-0.000147  0.000145 -0.058289)
 11:    198.50   0.000026    0.13  0.000041  ( 0.000220  0.000180 -0.006434)
 12:    275.14   0.000265    1.34  0.000301  ( 0.011716 -0.012778 -0.000309)
 13:    288.83   0.000238    1.20  0.000257  ( 0.001447  0.015829  0.002149)
 14:    294.50   0.001555    7.86  0.001648  (-0.005662 -0.004469 -0.039951)
 15:    294.89   0.000835    4.22  0.000883  ( 0.008490  0.007585 -0.027454)
 16:    330.69   0.000109    0.55  0.000103  ( 0.000380  0.000330  0.010144)
 17:    534.71   0.000614    3.10  0.000358  (-0.018901  0.001113 -0.000048)
 18:    577.66   0.000657    3.32  0.000355  ( 0.018816 -0.000872  0.000093)
 19:    621.70   0.000526    2.66  0.000264  ( 0.000441 -0.016230  0.000441)
 20:    641.95   0.004018   20.31  0.001953  (-0.000101 -0.000198 -0.044197)
 21:    694.16   0.000002    0.01  0.000001  (-0.000160 -0.000117  0.000933)
 22:    742.00   0.000695    3.51  0.000292  ( 0.002572 -0.016897 -0.000104)
 23:    858.69   0.001468    7.42  0.000534  (-0.023066 -0.000943  0.000832)
 24:    863.26   0.002847   14.39  0.001029  ( 0.000456  0.000098  0.032077)
 25:    975.65   0.000071    0.36  0.000023  (-0.003055 -0.003657  0.000100)
 26:   1046.99   0.001702    8.60  0.000507  ( 0.000000 -0.000049 -0.022523)
 27:   1070.30   0.000001    0.00  0.000000  (-0.000050  0.000117  0.000466)
 28:   1082.80   0.000529    2.67  0.000152  ( 0.010963  0.005669 -0.000040)
 29:   1098.22   0.002036   10.29  0.000579  (-0.019595  0.013949 -0.000031)
 30:   1121.07   0.000966    4.88  0.000269  ( 0.016258  0.002083 -0.000325)
 31:   1137.34   0.000042    0.21  0.000012  (-0.000634  0.000760  0.003264)
 32:   1143.79   0.000128    0.65  0.000035  (-0.000334  0.000190  0.005900)
 33:   1192.31   0.000098    0.50  0.000026  (-0.004099  0.002988  0.000055)
 34:   1230.56   0.018295   92.45  0.004639  (-0.068081  0.002112  0.000013)
 35:   1280.91   0.000339    1.71  0.000083  ( 0.008838  0.002125  0.000140)
 36:   1398.71   0.000416    2.10  0.000093  ( 0.007815 -0.005631  0.000023)
 37:   1401.38   0.001100    5.56  0.000245  (-0.015535 -0.001884 -0.000226)
 38:   1417.02   0.000166    0.84  0.000037  (-0.000976  0.005909 -0.000843)
 39:   1431.47   0.003656   18.48  0.000797  ( 0.028080  0.001219 -0.002645)
 40:   1437.21   0.000743    3.76  0.000161  (-0.000229 -0.000120 -0.012699)
 41:   1440.52   0.005128   25.92  0.001111  (-0.014234 -0.004822 -0.029750)
 42:   1441.42   0.003043   15.38  0.000659  (-0.014752 -0.005572  0.020252)
 43:   1442.52   0.001559    7.88  0.000337  (-0.012067 -0.013776  0.001337)
 44:   1445.42   0.008020   40.53  0.001731  (-0.000614  0.000425  0.041604)
 45:   1451.60   0.009797   49.51  0.002106  ( 0.005202 -0.045591 -0.000664)
 46:   1453.57   0.001379    6.97  0.000296  (-0.000621 -0.002294 -0.017044)
 47:   1459.22   0.001426    7.21  0.000305  (-0.000771  0.016836 -0.004571)
 48:   1474.12   0.003890   19.66  0.000823  ( 0.004277  0.028369 -0.000582)
 49:   1525.46   0.000537    2.71  0.000110  ( 0.010444 -0.000809 -0.000286)
 50:   1540.36   0.000442    2.23  0.000089  ( 0.006979 -0.006381 -0.000203)
 51:   1671.06   0.031816  160.78  0.005941  ( 0.077079  0.000480 -0.000203)
 52:   1736.30   0.006976   35.25  0.001254  (-0.003364  0.035248 -0.000069)
 53:   3075.91   0.002521   12.74  0.000256  ( 0.015276 -0.004727 -0.000001)
 54:   3077.97   0.001577    7.97  0.000160  (-0.006556 -0.010811  0.000019)
 55:   3097.13   0.002292   11.58  0.000231  (-0.014701 -0.003849  0.000039)
 56:   3106.91   0.002656   13.42  0.000267  ( 0.014749 -0.007016 -0.000252)
 57:   3169.14   0.000621    3.14  0.000061  ( 0.000003 -0.000019 -0.007818)
 58:   3172.01   0.000455    2.30  0.000045  ( 0.000081 -0.000088  0.006691)
 59:   3201.64   0.000414    2.09  0.000040  (-0.006085  0.001828  0.000014)
 60:   3206.68   0.000641    3.24  0.000062  (-0.001258 -0.007797  0.000003)
 61:   3212.26   0.000088    0.45  0.000009  (-0.000011 -0.000014 -0.002928)
 62:   3218.92   0.000065    0.33  0.000006  ( 0.000019  0.000094 -0.002513)
 63:   3228.71   0.000008    0.04  0.000001  ( 0.000338 -0.000802  0.000010)
 64:   3243.88   0.000009    0.05  0.000001  (-0.000426  0.000855 -0.000000)
 65:   3299.66   0.010790   54.53  0.001020  (-0.000237  0.031944 -0.000018)

--------------------------
THERMOCHEMISTRY AT 298.15K
--------------------------

Temperature         ... 298.15 K
Pressure            ... 1.00 atm
Total Mass          ... 125.19 AMU

Throughout the following assumptions are being made:
  (1) The electronic state is orbitally nondegenerate
  (2) There are no thermally accessible electronically excited states
  (3) Hindered rotations indicated by low frequency modes are not
      treated as such but are treated as vibrations and this may
      cause some error
  (4) All equations used are the standard statistical mechanics
      equations for an ideal gas
  (5) All vibrations are strictly harmonic

freq.      98.76  E(vib)   ...       0.46
freq.     132.86  E(vib)   ...       0.42
freq.     152.76  E(vib)   ...       0.40
freq.     170.40  E(vib)   ...       0.38
freq.     198.50  E(vib)   ...       0.35
freq.     275.14  E(vib)   ...       0.28
freq.     288.83  E(vib)   ...       0.27
freq.     294.50  E(vib)   ...       0.27
freq.     294.89  E(vib)   ...       0.27
freq.     330.69  E(vib)   ...       0.24
freq.     534.71  E(vib)   ...       0.13
freq.     577.66  E(vib)   ...       0.11
freq.     621.70  E(vib)   ...       0.09
freq.     641.95  E(vib)   ...       0.09
freq.     694.16  E(vib)   ...       0.07
freq.     742.00  E(vib)   ...       0.06
freq.     858.69  E(vib)   ...       0.04
freq.     863.26  E(vib)   ...       0.04
freq.     975.65  E(vib)   ...       0.03
freq.    1046.99  E(vib)   ...       0.02
freq.    1070.30  E(vib)   ...       0.02
freq.    1082.80  E(vib)   ...       0.02
freq.    1098.22  E(vib)   ...       0.02
freq.    1121.07  E(vib)   ...       0.01
freq.    1137.34  E(vib)   ...       0.01
freq.    1143.79  E(vib)   ...       0.01
freq.    1192.31  E(vib)   ...       0.01
freq.    1230.56  E(vib)   ...       0.01
freq.    1280.91  E(vib)   ...       0.01
freq.    1398.71  E(vib)   ...       0.00
freq.    1401.38  E(vib)   ...       0.00
freq.    1417.02  E(vib)   ...       0.00
freq.    1431.47  E(vib)   ...       0.00
freq.    1437.21  E(vib)   ...       0.00
freq.    1440.52  E(vib)   ...       0.00
freq.    1441.42  E(vib)   ...       0.00
freq.    1442.52  E(vib)   ...       0.00
freq.    1445.42  E(vib)   ...       0.00
freq.    1451.60  E(vib)   ...       0.00
freq.    1453.57  E(vib)   ...       0.00
freq.    1459.22  E(vib)   ...       0.00
freq.    1474.12  E(vib)   ...       0.00
freq.    1525.46  E(vib)   ...       0.00
freq.    1540.36  E(vib)   ...       0.00
freq.    1671.06  E(vib)   ...       0.00
freq.    1736.30  E(vib)   ...       0.00
freq.    3075.91  E(vib)   ...       0.00
freq.    3077.97  E(vib)   ...       0.00
freq.    3097.13  E(vib)   ...       0.00
freq.    3106.91  E(vib)   ...       0.00
freq.    3169.14  E(vib)   ...       0.00
freq.    3172.01  E(vib)   ...       0.00
freq.    3201.64  E(vib)   ...       0.00
freq.    3206.68  E(vib)   ...       0.00
freq.    3212.26  E(vib)   ...       0.00
freq.    3218.92  E(vib)   ...       0.00
freq.    3228.71  E(vib)   ...       0.00
freq.    3243.88  E(vib)   ...       0.00
freq.    3299.66  E(vib)   ...       0.00

------------
INNER ENERGY
------------

The inner energy is: U= E(el) + E(ZPE) + E(vib) + E(rot) + E(trans)
    E(el)   - is the total energy from the electronic structure calculation
              = E(kin-el) + E(nuc-el) + E(el-el) + E(nuc-nuc)
    E(ZPE)  - the the zero temperature vibrational energy from the frequency calculation
    E(vib)  - the the finite temperature correction to E(ZPE) due to population
              of excited vibrational states
    E(rot)  - is the rotational thermal energy
    E(trans)- is the translational thermal energy

Summary of contributions to the inner energy U:
Electronic energy                ...   -383.58602806 Eh
Zero point energy                ...      0.19735673 Eh     123.84 kcal/mol
Thermal vibrational correction   ...      0.00669685 Eh       4.20 kcal/mol
Thermal rotational correction    ...      0.00141627 Eh       0.89 kcal/mol
Thermal translational correction ...      0.00141627 Eh       0.89 kcal/mol
-----------------------------------------------------------------------
Total thermal energy                   -383.37914193 Eh

Summary of corrections to the electronic energy:
(perhaps to be used in another calculation)
Total thermal correction                  0.00952939 Eh       5.98 kcal/mol
Non-thermal (ZPE) correction              0.19735673 Eh     123.84 kcal/mol
-----------------------------------------------------------------------
Total correction                          0.20688612 Eh     129.82 kcal/mol

--------
ENTHALPY
--------

The enthalpy is H = U + kB*T
                kB is Boltzmann's constant
Total free energy                 ...   -383.37914193 Eh
Thermal Enthalpy correction       ...      0.00094421 Eh       0.59 kcal/mol
-----------------------------------------------------------------------
Total Enthalpy                    ...   -383.37819772 Eh

Note: Only C1 symmetry has been detected, increase convergence thresholds
      if your molecule has a higher symmetry. Symmetry factor of 1.0 is
      used for the rotational entropy correction.

Note: Rotational entropy computed according to Herzberg
Infrared and Raman Spectra, Chapter V,1, Van Nostrand Reinhold, 1945
Point Group:  C1, Symmetry Number:   1
Rotational constants in cm-1:     0.080439     0.050567     0.031805

Vibrational entropy computed according to the QRRHO of S. Grimme
Chem.Eur.J. 2012 18 9955

-------
ENTROPY
-------

The entropy contributions are T*S = T*(S(el)+S(vib)+S(rot)+S(trans))
     S(el)   - electronic entropy
     S(vib)  - vibrational entropy
     S(rot)  - rotational entropy
     S(trans)- translational entropy
The entropies will be listed as multiplied by the temperature to get
units of energy

Electronic entropy                ...      0.00000000 Eh      0.00 kcal/mol
Vibrational entropy               ...      0.01141673 Eh      7.16 kcal/mol
Rotational entropy                ...      0.01373736 Eh      8.62 kcal/mol
Translational entropy             ...      0.01918948 Eh     12.04 kcal/mol
-----------------------------------------------------------------------
Final entropy term                ...      0.04434357 Eh     27.83 kcal/mol

In case the symmetry of your molecule has not been determined correctly
or in case you have a reason to use a different symmetry number we print
out the resulting rotational entropy values for sn=1,12 :
 --------------------------------------------------------
|  sn= 1 | S(rot)=       0.01373736 Eh      8.62 kcal/mol|
|  sn= 2 | S(rot)=       0.01308291 Eh      8.21 kcal/mol|
|  sn= 3 | S(rot)=       0.01270007 Eh      7.97 kcal/mol|
|  sn= 4 | S(rot)=       0.01242845 Eh      7.80 kcal/mol|

                             ****ORCA TERMINATED NORMALLY****
TOTAL RUN TIME: 0 days 0 hours 35 minutes 47 seconds 509 msec
