                         Program Version 5.0.4 -  RELEASE  -
|  1> # ORCA 5.0.4 - /users/bwb16179/postgrad/2024_03/DFT_Crest_Conformers/Opt/deprot/3_deprot_aq_1.inp # write input file
|  2> # Basic Mode
|  3> #
|  4> ! Opt Freq wB97X Def2-SVP D4 SlowConv TightSCF Defgrid2 Def2/J RIJCOSX CPCM(Water)
|  5>
|  6>
|  7>
|  8> %maxcore 4500
|  9>
| 10> %geom
| 11> Maxiter 150
| 12> END
| 13>
| 14> * xyzfile 0 1 3_deprot_aq_1.xyz
| 15>
| 16>                          ****END OF INPUT****
 Total Charge           Charge          ....    0
 Multiplicity           Mult            ....    1
 Number of Electrons    NEL             ....   84
Dispersion correction           -0.002559496
FINAL SINGLE POINT ENERGY     -1223.414570122372
Dispersion correction            ... Starting D4
Dispersion correction           -0.002555491
FINAL SINGLE POINT ENERGY     -1223.415535203294
Dispersion correction            ... Starting D4
Dispersion correction           -0.002555144
FINAL SINGLE POINT ENERGY     -1223.415571029538
Dispersion correction            ... Starting D4
Dispersion correction           -0.002555220
FINAL SINGLE POINT ENERGY     -1223.415574603642
Dispersion correction            ... Starting D4
                    ***********************HURRAY********************

CARTESIAN COORDINATES (ANGSTROEM)
---------------------------------
  N     -1.068406   -1.176479   -0.000015
  C      0.000004   -2.019264   -0.000028
  N      1.068401   -1.176464    0.000025
  C      0.678493    0.149284    0.000078
  C     -0.678516    0.149274    0.000060
  C     -2.452613   -1.614529    0.000056
  C      2.452614   -1.614497   -0.000039
  H     -2.974436   -1.246178   -0.894917
  H     -2.973750   -1.248364    0.896337
  H     -2.451910   -2.710451   -0.001280
  H      2.974045   -1.247246   -0.895698
  H      2.451924   -2.710420   -0.000026
  H      2.974135   -1.247222    0.895558
  Cl     1.762687    1.461845    0.000110
  Cl    -1.762730    1.461818    0.000103

 Multiplicity           Mult            ....    1
 Number of Electrons    NEL             ....   84
 Basis Dimension        Dim             ....  164

ORBITAL ENERGIES
----------------

  NO   OCC          E(Eh)            E(eV)
   0   2.0000    -101.502564     -2762.0252
   1   2.0000    -101.502549     -2762.0248
   2   2.0000     -14.471513      -393.7899
   3   2.0000     -14.471506      -393.7897
   4   2.0000     -10.361484      -281.9503
   5   2.0000     -10.360908      -281.9346
   6   2.0000     -10.308413      -280.5062
   7   2.0000     -10.308385      -280.5054
   8   2.0000     -10.294620      -280.1308
   9   2.0000      -9.575098      -260.5517
  10   2.0000      -9.575077      -260.5511
  11   2.0000      -7.344172      -199.8451
  12   2.0000      -7.344167      -199.8449
  13   2.0000      -7.332844      -199.5368
  14   2.0000      -7.332839      -199.5367
  15   2.0000      -7.332834      -199.5366
  16   2.0000      -7.332823      -199.5363
  17   2.0000      -1.177842       -32.0507
  18   2.0000      -1.067520       -29.0487
  19   2.0000      -1.025889       -27.9159
  20   2.0000      -0.991015       -26.9669
  21   2.0000      -0.903548       -24.5868
  22   2.0000      -0.836377       -22.7590
  23   2.0000      -0.808378       -21.9971
  24   2.0000      -0.714657       -19.4468
  25   2.0000      -0.710497       -19.3336
  26   2.0000      -0.638230       -17.3671
  27   2.0000      -0.615947       -16.7608
  28   2.0000      -0.581165       -15.8143
  29   2.0000      -0.567356       -15.4385
  30   2.0000      -0.561110       -15.2686
  31   2.0000      -0.556277       -15.1371
  32   2.0000      -0.515400       -14.0247
  33   2.0000      -0.511032       -13.9059
  34   2.0000      -0.496099       -13.4995
  35   2.0000      -0.469154       -12.7663
  36   2.0000      -0.459634       -12.5073
  37   2.0000      -0.448143       -12.1946
  38   2.0000      -0.443860       -12.0780
  39   2.0000      -0.381700       -10.3866
  40   2.0000      -0.336479        -9.1560
  41   2.0000      -0.321124        -8.7382
  42   0.0000       0.104012         2.8303
  43   0.0000       0.118539         3.2256
  44   0.0000       0.127847         3.4789
  45   0.0000       0.168524         4.5858
  46   0.0000       0.178423         4.8551

MULLIKEN ATOMIC CHARGES
-----------------------
   0 N :   -0.238447
   1 C :   -0.172448
   2 N :   -0.238446
   3 C :    0.093415
   4 C :    0.093415
   5 C :    0.091656
   6 C :    0.091655
   7 H :    0.068331
   8 H :    0.068372
   9 H :    0.064205
  10 H :    0.068353
  11 H :    0.064204
  12 H :    0.068351
  13 Cl:   -0.061307
  14 Cl:   -0.061308
Sum of atomic charges:    0.0000000

LOEWDIN ATOMIC CHARGES
----------------------
   0 N :    0.015994
   1 C :   -0.287926
   2 N :    0.015994
   3 C :   -0.176422
   4 C :   -0.176422
   5 C :    0.030341
   6 C :    0.030341
   7 H :    0.036710
   8 H :    0.036727
   9 H :    0.041584
  10 H :    0.036719
  11 H :    0.041584
  12 H :    0.036718
  13 Cl:    0.159029
  14 Cl:    0.159029

  Mayer bond orders larger than 0.100000
B(  0-N ,  1-C ) :   1.2354 B(  0-N ,  4-C ) :   1.1400 B(  0-N ,  5-C ) :   0.9285
B(  1-C ,  2-N ) :   1.2354 B(  2-N ,  3-C ) :   1.1400 B(  2-N ,  6-C ) :   0.9285
B(  3-C ,  4-C ) :   1.5946 B(  3-C , 13-Cl) :   1.0755 B(  4-C , 14-Cl) :   1.0755
B(  5-C ,  7-H ) :   0.9773 B(  5-C ,  8-H ) :   0.9773 B(  5-C ,  9-H ) :   0.9704
B(  6-C , 10-H ) :   0.9773 B(  6-C , 11-H ) :   0.9704 B(  6-C , 12-H ) :   0.9773

Dispersion correction           -0.002555314
FINAL SINGLE POINT ENERGY     -1223.415575645714

DIPOLE MOMENT
-------------
                                X             Y             Z
Electronic contribution:     -0.00010      14.16993       0.00050
Nuclear contribution   :      0.00010     -13.71687      -0.00048
                        -----------------------------------------
Total Dipole Moment    :     -0.00000       0.45307       0.00003
                        -----------------------------------------
Magnitude (a.u.)       :      0.45307
Magnitude (Debye)      :      1.15160

Dispersion correction in the Hessian             ... Starting D4

VIBRATIONAL FREQUENCIES
-----------------------

Scaling factor for frequencies =  1.000000000  (already applied!)

   0:         0.00 cm**-1
   1:         0.00 cm**-1
   2:         0.00 cm**-1
   3:         0.00 cm**-1
   4:         0.00 cm**-1
   5:         0.00 cm**-1
   6:       100.50 cm**-1
   7:       108.29 cm**-1
   8:       120.00 cm**-1
   9:       165.87 cm**-1
  10:       168.45 cm**-1
  11:       234.58 cm**-1
  12:       271.83 cm**-1
  13:       282.78 cm**-1
  14:       322.18 cm**-1
  15:       439.94 cm**-1
  16:       542.89 cm**-1
  17:       578.95 cm**-1
  18:       639.99 cm**-1
  19:       650.78 cm**-1
  20:       669.97 cm**-1
  21:       890.05 cm**-1
  22:      1081.80 cm**-1
  23:      1090.12 cm**-1
  24:      1112.08 cm**-1
  25:      1142.13 cm**-1
  26:      1143.59 cm**-1
  27:      1176.38 cm**-1
  28:      1383.64 cm**-1
  29:      1396.71 cm**-1
  30:      1418.40 cm**-1
  31:      1430.85 cm**-1
  32:      1446.89 cm**-1
  33:      1447.34 cm**-1
  34:      1464.65 cm**-1
  35:      1472.19 cm**-1
  36:      1478.46 cm**-1
  37:      1490.44 cm**-1
  38:      1699.69 cm**-1
  39:      3084.21 cm**-1
  40:      3084.85 cm**-1
  41:      3186.89 cm**-1
  42:      3186.92 cm**-1
  43:      3225.63 cm**-1
  44:      3225.83 cm**-1

IR SPECTRUM
-----------

 Mode   freq       eps      Int      T**2         TX        TY        TZ
       cm**-1   L/(mol*cm) km/mol    a.u.
----------------------------------------------------------------------------
  6:    100.50   0.000000    0.00  0.000000  (-0.000011  0.000039 -0.000009)
  7:    108.29   0.000354    1.79  0.001020  ( 0.000019 -0.000060 -0.031935)
  8:    120.00   0.000000    0.00  0.000000  (-0.000019  0.000055  0.000015)
  9:    165.87   0.002004   10.13  0.003771  ( 0.000010  0.000000  0.061407)
 10:    168.45   0.000130    0.66  0.000241  ( 0.000000 -0.015533  0.000067)
 11:    234.58   0.000036    0.18  0.000048  ( 0.006899  0.000001  0.000029)
 12:    271.83   0.001837    9.29  0.002109  ( 0.000010 -0.000060  0.045927)
 13:    282.78   0.001788    9.04  0.001973  ( 0.000000 -0.044421 -0.000049)
 14:    322.18   0.000000    0.00  0.000000  ( 0.000004  0.000003  0.000000)
 15:    439.94   0.001859    9.40  0.001319  ( 0.036315  0.000000 -0.000005)
 16:    542.89   0.001395    7.05  0.000802  (-0.000000  0.028313 -0.000001)
 17:    578.95   0.002811   14.20  0.001515  ( 0.038922  0.000000  0.000000)
 18:    639.99   0.000565    2.86  0.000276  ( 0.000012  0.000020 -0.016598)
 19:    650.78   0.000949    4.80  0.000455  (-0.000000  0.021337  0.000013)
 20:    669.97   0.000000    0.00  0.000000  ( 0.000008 -0.000011 -0.000000)
 21:    890.05   0.000066    0.34  0.000023  ( 0.004827  0.000000 -0.000004)
 22:   1081.80   0.000080    0.40  0.000023  (-0.000000  0.004796 -0.000002)
 23:   1090.12   0.000008    0.04  0.000002  ( 0.001505 -0.000001  0.000004)
 24:   1112.08   0.012646   63.91  0.003549  ( 0.000000 -0.059570  0.000002)
 25:   1142.13   0.000038    0.19  0.000010  (-0.000043 -0.000002  0.003233)
 26:   1143.59   0.000000    0.00  0.000000  (-0.000042 -0.000003  0.000001)
 27:   1176.38   0.018811   95.06  0.004990  (-0.070641 -0.000000 -0.000002)
 28:   1383.64   0.003690   18.65  0.000832  (-0.028848 -0.000000 -0.000011)
 29:   1396.71   0.000388    1.96  0.000087  (-0.000001  0.009306 -0.000020)
 30:   1418.40   0.008846   44.70  0.001946  ( 0.044115  0.000000 -0.000045)
 31:   1430.85   0.001298    6.56  0.000283  (-0.000000 -0.016825 -0.000055)
 32:   1446.89   0.000000    0.00  0.000000  ( 0.000088  0.000063  0.000012)
 33:   1447.34   0.007867   39.76  0.001696  ( 0.000101  0.000058  0.041184)
 34:   1464.65   0.009509   48.05  0.002026  (-0.000000  0.045011 -0.000015)
 35:   1472.19   0.005826   29.44  0.001235  (-0.035142  0.000005  0.000056)
 36:   1478.46   0.012888   65.13  0.002720  ( 0.000003  0.052157 -0.000039)
 37:   1490.44   0.016310   82.43  0.003415  ( 0.058438 -0.000000  0.000003)
 38:   1699.69   0.006454   32.62  0.001185  (-0.000000  0.034423  0.000004)
 39:   3084.21   0.013095   66.17  0.001325  (-0.036400  0.000001  0.000015)
 40:   3084.85   0.000299    1.51  0.000030  ( 0.000006  0.005500 -0.000012)
 41:   3186.89   0.003346   16.91  0.000328  ( 0.000003 -0.000005  0.018102)
 42:   3186.92   0.000000    0.00  0.000000  (-0.000001  0.000005 -0.000101)
 43:   3225.63   0.000304    1.54  0.000029  (-0.000008 -0.005423 -0.000002)
 44:   3225.83   0.000057    0.29  0.000006  (-0.002358  0.000019  0.000002)

--------------------------
THERMOCHEMISTRY AT 298.15K
--------------------------

Temperature         ... 298.15 K
Pressure            ... 1.00 atm
Total Mass          ... 165.02 AMU

Throughout the following assumptions are being made:
  (1) The electronic state is orbitally nondegenerate
  (2) There are no thermally accessible electronically excited states
  (3) Hindered rotations indicated by low frequency modes are not
      treated as such but are treated as vibrations and this may
      cause some error
  (4) All equations used are the standard statistical mechanics
      equations for an ideal gas
  (5) All vibrations are strictly harmonic

freq.     100.50  E(vib)   ...       0.46
freq.     108.29  E(vib)   ...       0.45
freq.     120.00  E(vib)   ...       0.44
freq.     165.87  E(vib)   ...       0.39
freq.     168.45  E(vib)   ...       0.38
freq.     234.58  E(vib)   ...       0.32
freq.     271.83  E(vib)   ...       0.29
freq.     282.78  E(vib)   ...       0.28
freq.     322.18  E(vib)   ...       0.25
freq.     439.94  E(vib)   ...       0.17
freq.     542.89  E(vib)   ...       0.12
freq.     578.95  E(vib)   ...       0.11
freq.     639.99  E(vib)   ...       0.09
freq.     650.78  E(vib)   ...       0.08
freq.     669.97  E(vib)   ...       0.08
freq.     890.05  E(vib)   ...       0.04
freq.    1081.80  E(vib)   ...       0.02
freq.    1090.12  E(vib)   ...       0.02
freq.    1112.08  E(vib)   ...       0.01
freq.    1142.13  E(vib)   ...       0.01
freq.    1143.59  E(vib)   ...       0.01
freq.    1176.38  E(vib)   ...       0.01
freq.    1383.64  E(vib)   ...       0.00
freq.    1396.71  E(vib)   ...       0.00
freq.    1418.40  E(vib)   ...       0.00
freq.    1430.85  E(vib)   ...       0.00
freq.    1446.89  E(vib)   ...       0.00
freq.    1447.34  E(vib)   ...       0.00
freq.    1464.65  E(vib)   ...       0.00
freq.    1472.19  E(vib)   ...       0.00
freq.    1478.46  E(vib)   ...       0.00
freq.    1490.44  E(vib)   ...       0.00
freq.    1699.69  E(vib)   ...       0.00
freq.    3084.21  E(vib)   ...       0.00
freq.    3084.85  E(vib)   ...       0.00
freq.    3186.89  E(vib)   ...       0.00
freq.    3186.92  E(vib)   ...       0.00
freq.    3225.63  E(vib)   ...       0.00
freq.    3225.83  E(vib)   ...       0.00

------------
INNER ENERGY
------------

The inner energy is: U= E(el) + E(ZPE) + E(vib) + E(rot) + E(trans)
    E(el)   - is the total energy from the electronic structure calculation
              = E(kin-el) + E(nuc-el) + E(el-el) + E(nuc-nuc)
    E(ZPE)  - the the zero temperature vibrational energy from the frequency calculation
    E(vib)  - the the finite temperature correction to E(ZPE) due to population
              of excited vibrational states
    E(rot)  - is the rotational thermal energy
    E(trans)- is the translational thermal energy

Summary of contributions to the inner energy U:
Electronic energy                ...  -1223.41557565 Eh
Zero point energy                ...      0.10948131 Eh      68.70 kcal/mol
Thermal vibrational correction   ...      0.00647369 Eh       4.06 kcal/mol
Thermal rotational correction    ...      0.00141627 Eh       0.89 kcal/mol
Thermal translational correction ...      0.00141627 Eh       0.89 kcal/mol
-----------------------------------------------------------------------
Total thermal energy                  -1223.29678809 Eh

Summary of corrections to the electronic energy:
(perhaps to be used in another calculation)
Total thermal correction                  0.00930624 Eh       5.84 kcal/mol
Non-thermal (ZPE) correction              0.10948131 Eh      68.70 kcal/mol
-----------------------------------------------------------------------
Total correction                          0.11878755 Eh      74.54 kcal/mol

--------
ENTHALPY
--------

The enthalpy is H = U + kB*T
                kB is Boltzmann's constant
Total free energy                 ...  -1223.29678809 Eh
Thermal Enthalpy correction       ...      0.00094421 Eh       0.59 kcal/mol
-----------------------------------------------------------------------
Total Enthalpy                    ...  -1223.29584388 Eh

Note: Only C1 symmetry has been detected, increase convergence thresholds
      if your molecule has a higher symmetry. Symmetry factor of 1.0 is
      used for the rotational entropy correction.

Note: Rotational entropy computed according to Herzberg
Infrared and Raman Spectra, Chapter V,1, Van Nostrand Reinhold, 1945
Point Group:  C1, Symmetry Number:   1
Rotational constants in cm-1:     0.051594     0.036737     0.021636

Vibrational entropy computed according to the QRRHO of S. Grimme
Chem.Eur.J. 2012 18 9955

-------
ENTROPY
-------

The entropy contributions are T*S = T*(S(el)+S(vib)+S(rot)+S(trans))
     S(el)   - electronic entropy
     S(vib)  - vibrational entropy
     S(rot)  - rotational entropy
     S(trans)- translational entropy
The entropies will be listed as multiplied by the temperature to get
units of energy

Electronic entropy                ...      0.00000000 Eh      0.00 kcal/mol
Vibrational entropy               ...      0.01139410 Eh      7.15 kcal/mol
Rotational entropy                ...      0.01427972 Eh      8.96 kcal/mol
Translational entropy             ...      0.01958067 Eh     12.29 kcal/mol
-----------------------------------------------------------------------
Final entropy term                ...      0.04525450 Eh     28.40 kcal/mol

In case the symmetry of your molecule has not been determined correctly
or in case you have a reason to use a different symmetry number we print
out the resulting rotational entropy values for sn=1,12 :
 --------------------------------------------------------
|  sn= 1 | S(rot)=       0.01427972 Eh      8.96 kcal/mol|
|  sn= 2 | S(rot)=       0.01362527 Eh      8.55 kcal/mol|
|  sn= 3 | S(rot)=       0.01324243 Eh      8.31 kcal/mol|
|  sn= 4 | S(rot)=       0.01297081 Eh      8.14 kcal/mol|
|  sn= 5 | S(rot)=       0.01276012 Eh      8.01 kcal/mol|
|  sn= 6 | S(rot)=       0.01258798 Eh      7.90 kcal/mol|
|  sn= 7 | S(rot)=       0.01244243 Eh      7.81 kcal/mol|
|  sn= 8 | S(rot)=       0.01231635 Eh      7.73 kcal/mol|
|  sn= 9 | S(rot)=       0.01220515 Eh      7.66 kcal/mol|
|  sn=10 | S(rot)=       0.01210567 Eh      7.60 kcal/mol|
|  sn=11 | S(rot)=       0.01201568 Eh      7.54 kcal/mol|
|  sn=12 | S(rot)=       0.01193352 Eh      7.49 kcal/mol|
 --------------------------------------------------------

-------------------
GIBBS FREE ENERGY
-------------------

The Gibbs free energy is G = H - T*S

Total enthalpy                    ...  -1223.29584388 Eh
Total entropy correction          ...     -0.04525450 Eh    -28.40 kcal/mol
-----------------------------------------------------------------------

                             ****ORCA TERMINATED NORMALLY****
TOTAL RUN TIME: 0 days 0 hours 18 minutes 55 seconds 467 msec
