                         Program Version 5.0.4 -  RELEASE  -
|  1> # ORCA 5.0.4 - /users/bwb16179/postgrad/2024_03/DFT_Crest_Conformers/Opt/deprot/3_deprot_aq_2.inp # write input file
|  2> # Basic Mode
|  3> #
|  4> ! Opt Freq wB97X Def2-SVP D4 SlowConv TightSCF Defgrid2 Def2/J RIJCOSX CPCM(Water)
|  5>
|  6>
|  7>
|  8> %maxcore 4500
|  9>
| 10> %geom
| 11> Maxiter 150
| 12> END
| 13>
| 14> * xyzfile 0 1 3_deprot_aq_2.xyz
| 15>
| 16>                          ****END OF INPUT****
 Total Charge           Charge          ....    0
 Multiplicity           Mult            ....    1
 Number of Electrons    NEL             ....   84
Dispersion correction           -0.002557563
FINAL SINGLE POINT ENERGY     -1223.412963807151
Dispersion correction            ... Starting D4
Dispersion correction           -0.002553259
FINAL SINGLE POINT ENERGY     -1223.413986892954
Dispersion correction            ... Starting D4
Dispersion correction           -0.002552954
FINAL SINGLE POINT ENERGY     -1223.414025635406
Dispersion correction            ... Starting D4
Dispersion correction           -0.002553039
FINAL SINGLE POINT ENERGY     -1223.414030665577
Dispersion correction            ... Starting D4
Dispersion correction           -0.002553144
FINAL SINGLE POINT ENERGY     -1223.414032626742
Dispersion correction            ... Starting D4
                    ***********************HURRAY********************

CARTESIAN COORDINATES (ANGSTROEM)
---------------------------------
  N     -1.074519   -1.176145   -0.002778
  C     -0.004808   -2.017587   -0.003535
  N      1.063394   -1.177562   -0.000882
  C      0.674569    0.148153    0.001366
  C     -0.682826    0.150798    0.000452
  C     -2.450985   -1.647065    0.001267
  C      2.447589   -1.615960   -0.000580
  H     -2.650743   -2.217984    0.917766
  H     -2.628660   -2.287039   -0.872777
  H     -3.131500   -0.788290   -0.039895
  H      2.967776   -1.249661    0.896122
  H      2.969105   -1.247317   -0.895544
  H      2.446470   -2.711858   -0.001985
  Cl     1.759850    1.460143    0.003634
  Cl    -1.742408    1.484595    0.002242

 Multiplicity           Mult            ....    1
 Number of Electrons    NEL             ....   84
 Basis Dimension        Dim             ....  164

ORBITAL ENERGIES
----------------

  NO   OCC          E(Eh)            E(eV)
   0   2.0000    -101.503050     -2762.0384
   1   2.0000    -101.502258     -2762.0168
   2   2.0000     -14.472128      -393.8066
   3   2.0000     -14.471446      -393.7881
   4   2.0000     -10.362524      -281.9786
   5   2.0000     -10.360170      -281.9146
   6   2.0000     -10.308460      -280.5075
   7   2.0000     -10.308152      -280.4991
   8   2.0000     -10.293530      -280.1012
   9   2.0000      -9.575577      -260.5647
  10   2.0000      -9.574780      -260.5430
  11   2.0000      -7.344639      -199.8578
  12   2.0000      -7.343871      -199.8369
  13   2.0000      -7.333381      -199.5514
  14   2.0000      -7.333274      -199.5485
  15   2.0000      -7.332534      -199.5284
  16   2.0000      -7.332514      -199.5278
  17   2.0000      -1.177492       -32.0412
  18   2.0000      -1.066809       -29.0293
  19   2.0000      -1.026315       -27.9274
  20   2.0000      -0.991059       -26.9681
  21   2.0000      -0.903316       -24.5805
  22   2.0000      -0.835822       -22.7439
  23   2.0000      -0.808805       -22.0087
  24   2.0000      -0.714520       -19.4431
  25   2.0000      -0.710577       -19.3358
  26   2.0000      -0.638676       -17.3793
  27   2.0000      -0.615394       -16.7457
  28   2.0000      -0.581053       -15.8113
  29   2.0000      -0.567537       -15.4435
  30   2.0000      -0.560220       -15.2444
  31   2.0000      -0.556812       -15.1516
  32   2.0000      -0.517367       -14.0783
  33   2.0000      -0.511023       -13.9057
  34   2.0000      -0.497140       -13.5279
  35   2.0000      -0.470145       -12.7933
  36   2.0000      -0.458018       -12.4633
  37   2.0000      -0.448667       -12.2089
  38   2.0000      -0.442545       -12.0423
  39   2.0000      -0.381560       -10.3828
  40   2.0000      -0.336126        -9.1464
  41   2.0000      -0.320538        -8.7223
  42   0.0000       0.106706         2.9036
  43   0.0000       0.111720         3.0400
  44   0.0000       0.127249         3.4626
  45   0.0000       0.168754         4.5920
  46   0.0000       0.177982         4.8431

MULLIKEN ATOMIC CHARGES
-----------------------
   0 N :   -0.239847
   1 C :   -0.173715
   2 N :   -0.234274
   3 C :    0.089979
   4 C :    0.093611
   5 C :    0.096472
   6 C :    0.091323
   7 H :    0.070508
   8 H :    0.069811
   9 H :    0.056633
  10 H :    0.068715
  11 H :    0.068723
  12 H :    0.064130
  13 Cl:   -0.061889
  14 Cl:   -0.060180
Sum of atomic charges:   -0.0000000

LOEWDIN ATOMIC CHARGES
----------------------
   0 N :    0.013097
   1 C :   -0.286859
   2 N :    0.018692
   3 C :   -0.179781
   4 C :   -0.174827
   5 C :    0.033687
   6 C :    0.030451
   7 H :    0.040234
   8 H :    0.040578
   9 H :    0.028689
  10 H :    0.036913
  11 H :    0.036901
  12 H :    0.041566
  13 Cl:    0.158090
  14 Cl:    0.162570

  Mayer bond orders larger than 0.100000
B(  0-N ,  1-C ) :   1.2224 B(  0-N ,  4-C ) :   1.1397 B(  0-N ,  5-C ) :   0.9238
B(  1-C ,  2-N ) :   1.2439 B(  2-N ,  3-C ) :   1.1384 B(  2-N ,  6-C ) :   0.9281
B(  3-C ,  4-C ) :   1.5853 B(  3-C , 13-Cl) :   1.0765 B(  4-C , 14-Cl) :   1.0758
B(  5-C ,  7-H ) :   0.9783 B(  5-C ,  8-H ) :   0.9778 B(  5-C ,  9-H ) :   0.9709
B(  6-C , 10-H ) :   0.9772 B(  6-C , 11-H ) :   0.9772 B(  6-C , 12-H ) :   0.9705

Dispersion correction           -0.002553182
FINAL SINGLE POINT ENERGY     -1223.414033592065

DIPOLE MOMENT
-------------
                                X             Y             Z
Electronic contribution:      0.04493      14.27899       0.01071
Nuclear contribution   :     -0.05357     -13.83638      -0.00711
                        -----------------------------------------
Total Dipole Moment    :     -0.00864       0.44261       0.00360
                        -----------------------------------------
Magnitude (a.u.)       :      0.44271
Magnitude (Debye)      :      1.12528

Dispersion correction in the Hessian             ... Starting D4

VIBRATIONAL FREQUENCIES
-----------------------

Scaling factor for frequencies =  1.000000000  (already applied!)

   0:         0.00 cm**-1
   1:         0.00 cm**-1
   2:         0.00 cm**-1
   3:         0.00 cm**-1
   4:         0.00 cm**-1
   5:         0.00 cm**-1
   6:      -123.43 cm**-1 ***imaginary mode***
   7:       102.06 cm**-1
   8:       115.37 cm**-1
   9:       167.19 cm**-1
  10:       172.69 cm**-1
  11:       247.04 cm**-1
  12:       258.65 cm**-1
  13:       297.94 cm**-1
  14:       331.14 cm**-1
  15:       441.27 cm**-1
  16:       541.61 cm**-1
  17:       578.73 cm**-1
  18:       639.19 cm**-1
  19:       654.42 cm**-1
  20:       670.50 cm**-1
  21:       887.55 cm**-1
  22:      1084.00 cm**-1
  23:      1103.12 cm**-1
  24:      1111.03 cm**-1
  25:      1139.02 cm**-1
  26:      1142.99 cm**-1
  27:      1177.50 cm**-1
  28:      1374.10 cm**-1
  29:      1400.25 cm**-1
  30:      1423.94 cm**-1
  31:      1440.31 cm**-1
  32:      1447.15 cm**-1
  33:      1453.09 cm**-1
  34:      1464.44 cm**-1
  35:      1475.15 cm**-1
  36:      1481.46 cm**-1
  37:      1493.18 cm**-1
  38:      1695.45 cm**-1
  39:      3084.96 cm**-1
  40:      3096.87 cm**-1
  41:      3187.84 cm**-1
  42:      3204.73 cm**-1
  43:      3224.29 cm**-1
  44:      3226.12 cm**-1

IR SPECTRUM
-----------

 Mode   freq       eps      Int      T**2         TX        TY        TZ
       cm**-1   L/(mol*cm) km/mol    a.u.
----------------------------------------------------------------------------
  7:    102.06   0.000043    0.22  0.000131  (-0.000191 -0.000365  0.011426)
  8:    115.37   0.000178    0.90  0.000481  (-0.000193 -0.000467 -0.021916)
  9:    167.19   0.002253   11.39  0.004206  (-0.000187 -0.000591 -0.064849)
 10:    172.69   0.000107    0.54  0.000194  ( 0.000046  0.013919 -0.000206)
 11:    247.04   0.000135    0.68  0.000171  (-0.006715 -0.011214  0.000074)
 12:    258.65   0.001494    7.55  0.001803  ( 0.000551  0.000729  0.042450)
 13:    297.94   0.001924    9.72  0.002015  ( 0.000864 -0.044866  0.001247)
 14:    331.14   0.000017    0.09  0.000016  ( 0.000491 -0.001193 -0.003825)
 15:    441.27   0.001965    9.93  0.001390  (-0.037217 -0.002123  0.000147)
 16:    541.61   0.001362    6.88  0.000784  ( 0.001119 -0.027986  0.000059)
 17:    578.73   0.002096   10.59  0.001130  (-0.033555  0.002112 -0.000076)
 18:    639.19   0.000557    2.82  0.000272  ( 0.000380  0.000725 -0.016473)
 19:    654.42   0.001250    6.31  0.000596  (-0.000345  0.024405  0.000337)
 20:    670.50   0.000002    0.01  0.000001  ( 0.000332 -0.000399 -0.000835)
 21:    887.55   0.000016    0.08  0.000006  (-0.002369  0.000199  0.000124)
 22:   1084.00   0.000411    2.08  0.000118  (-0.010771 -0.001537  0.000046)
 23:   1103.12   0.003230   16.32  0.000914  (-0.026772 -0.014032 -0.000013)
 24:   1111.03   0.015087   76.24  0.004238  (-0.005845 -0.064834  0.000112)
 25:   1139.02   0.000090    0.46  0.000025  (-0.003454 -0.000657  0.003522)
 26:   1142.99   0.000016    0.08  0.000004  (-0.000627 -0.000146 -0.001999)
 27:   1177.50   0.014405   72.80  0.003818  ( 0.061620 -0.004540  0.000206)
 28:   1374.10   0.005077   25.66  0.001153  (-0.033887  0.002078  0.000604)
 29:   1400.25   0.000230    1.16  0.000051  (-0.003849  0.006001  0.000590)
 30:   1423.94   0.007169   36.23  0.001571  (-0.037624 -0.012474  0.000084)
 31:   1440.31   0.002546   12.86  0.000552  (-0.022549 -0.004437  0.004837)
 32:   1447.15   0.003839   19.40  0.000828  (-0.000211 -0.000045  0.028770)
 33:   1453.09   0.004023   20.33  0.000864  ( 0.010610  0.004277  0.027077)
 34:   1464.44   0.005687   28.74  0.001212  (-0.002524 -0.034309  0.005338)
 35:   1475.15   0.006482   32.76  0.001371  ( 0.023833 -0.028340 -0.000420)
 36:   1481.46   0.016234   82.04  0.003420  ( 0.045335 -0.036864 -0.002348)
 37:   1493.18   0.012636   63.86  0.002641  (-0.038822 -0.033669 -0.000076)
 38:   1695.45   0.005292   26.75  0.000974  (-0.001074  0.031192  0.000176)
 39:   3084.96   0.006837   34.55  0.000692  ( 0.026065 -0.003497 -0.000017)
 40:   3096.87   0.006019   30.42  0.000607  (-0.021962 -0.011128  0.000635)
 41:   3187.84   0.001615    8.16  0.000158  (-0.000020 -0.000019  0.012574)
 42:   3204.73   0.001288    6.51  0.000125  ( 0.000070  0.000034 -0.011199)
 43:   3224.29   0.000166    0.84  0.000016  ( 0.000968 -0.003882 -0.000228)
 44:   3226.12   0.000174    0.88  0.000017  ( 0.001526  0.003810  0.000001)

--------------------------
THERMOCHEMISTRY AT 298.15K
--------------------------

Temperature         ... 298.15 K
Pressure            ... 1.00 atm
Total Mass          ... 165.02 AMU

Throughout the following assumptions are being made:
  (1) The electronic state is orbitally nondegenerate
  (2) There are no thermally accessible electronically excited states
  (3) Hindered rotations indicated by low frequency modes are not
      treated as such but are treated as vibrations and this may
      cause some error
  (4) All equations used are the standard statistical mechanics
      equations for an ideal gas
  (5) All vibrations are strictly harmonic

freq.     102.06  E(vib)   ...       0.46
freq.     115.37  E(vib)   ...       0.44
freq.     167.19  E(vib)   ...       0.39
freq.     172.69  E(vib)   ...       0.38
freq.     247.04  E(vib)   ...       0.31
freq.     258.65  E(vib)   ...       0.30
freq.     297.94  E(vib)   ...       0.27
freq.     331.14  E(vib)   ...       0.24
freq.     441.27  E(vib)   ...       0.17
freq.     541.61  E(vib)   ...       0.12
freq.     578.73  E(vib)   ...       0.11
freq.     639.19  E(vib)   ...       0.09
freq.     654.42  E(vib)   ...       0.08
freq.     670.50  E(vib)   ...       0.08
freq.     887.55  E(vib)   ...       0.04
freq.    1084.00  E(vib)   ...       0.02
freq.    1103.12  E(vib)   ...       0.02
freq.    1111.03  E(vib)   ...       0.01
freq.    1139.02  E(vib)   ...       0.01
freq.    1142.99  E(vib)   ...       0.01
freq.    1177.50  E(vib)   ...       0.01
freq.    1374.10  E(vib)   ...       0.01
freq.    1400.25  E(vib)   ...       0.00
freq.    1423.94  E(vib)   ...       0.00
freq.    1440.31  E(vib)   ...       0.00
freq.    1447.15  E(vib)   ...       0.00
freq.    1453.09  E(vib)   ...       0.00
freq.    1464.44  E(vib)   ...       0.00
freq.    1475.15  E(vib)   ...       0.00
freq.    1481.46  E(vib)   ...       0.00
freq.    1493.18  E(vib)   ...       0.00
freq.    1695.45  E(vib)   ...       0.00
freq.    3084.96  E(vib)   ...       0.00
freq.    3096.87  E(vib)   ...       0.00
freq.    3187.84  E(vib)   ...       0.00
freq.    3204.73  E(vib)   ...       0.00
freq.    3224.29  E(vib)   ...       0.00
freq.    3226.12  E(vib)   ...       0.00

------------
INNER ENERGY
------------

The inner energy is: U= E(el) + E(ZPE) + E(vib) + E(rot) + E(trans)
    E(el)   - is the total energy from the electronic structure calculation
              = E(kin-el) + E(nuc-el) + E(el-el) + E(nuc-nuc)
    E(ZPE)  - the the zero temperature vibrational energy from the frequency calculation
    E(vib)  - the the finite temperature correction to E(ZPE) due to population
              of excited vibrational states
    E(rot)  - is the rotational thermal energy
    E(trans)- is the translational thermal energy

Summary of contributions to the inner energy U:
Electronic energy                ...  -1223.41403359 Eh
Zero point energy                ...      0.10943482 Eh      68.67 kcal/mol
Thermal vibrational correction   ...      0.00571831 Eh       3.59 kcal/mol
Thermal rotational correction    ...      0.00141627 Eh       0.89 kcal/mol
Thermal translational correction ...      0.00141627 Eh       0.89 kcal/mol
-----------------------------------------------------------------------
Total thermal energy                  -1223.29604792 Eh

Summary of corrections to the electronic energy:
(perhaps to be used in another calculation)
Total thermal correction                  0.00855085 Eh       5.37 kcal/mol
Non-thermal (ZPE) correction              0.10943482 Eh      68.67 kcal/mol
-----------------------------------------------------------------------
Total correction                          0.11798567 Eh      74.04 kcal/mol

--------
ENTHALPY
--------

The enthalpy is H = U + kB*T
                kB is Boltzmann's constant
Total free energy                 ...  -1223.29604792 Eh
Thermal Enthalpy correction       ...      0.00094421 Eh       0.59 kcal/mol
-----------------------------------------------------------------------
Total Enthalpy                    ...  -1223.29510371 Eh

Note: Only C1 symmetry has been detected, increase convergence thresholds
      if your molecule has a higher symmetry. Symmetry factor of 1.0 is
      used for the rotational entropy correction.

Note: Rotational entropy computed according to Herzberg
Infrared and Raman Spectra, Chapter V,1, Van Nostrand Reinhold, 1945
Point Group:  C1, Symmetry Number:   1
Rotational constants in cm-1:     0.051000     0.037001     0.021622

Vibrational entropy computed according to the QRRHO of S. Grimme
Chem.Eur.J. 2012 18 9955

-------
ENTROPY
-------

The entropy contributions are T*S = T*(S(el)+S(vib)+S(rot)+S(trans))
     S(el)   - electronic entropy
     S(vib)  - vibrational entropy
     S(rot)  - rotational entropy
     S(trans)- translational entropy
The entropies will be listed as multiplied by the temperature to get
units of energy

Electronic entropy                ...      0.00000000 Eh      0.00 kcal/mol
Vibrational entropy               ...      0.00985003 Eh      6.18 kcal/mol
Rotational entropy                ...      0.01428212 Eh      8.96 kcal/mol
Translational entropy             ...      0.01958067 Eh     12.29 kcal/mol
-----------------------------------------------------------------------
Final entropy term                ...      0.04371283 Eh     27.43 kcal/mol

In case the symmetry of your molecule has not been determined correctly
or in case you have a reason to use a different symmetry number we print
out the resulting rotational entropy values for sn=1,12 :
 --------------------------------------------------------
|  sn= 1 | S(rot)=       0.01428212 Eh      8.96 kcal/mol|
|  sn= 2 | S(rot)=       0.01362767 Eh      8.55 kcal/mol|
|  sn= 3 | S(rot)=       0.01324483 Eh      8.31 kcal/mol|
|  sn= 4 | S(rot)=       0.01297321 Eh      8.14 kcal/mol|
|  sn= 5 | S(rot)=       0.01276252 Eh      8.01 kcal/mol|
|  sn= 6 | S(rot)=       0.01259038 Eh      7.90 kcal/mol|
|  sn= 7 | S(rot)=       0.01244483 Eh      7.81 kcal/mol|
|  sn= 8 | S(rot)=       0.01231875 Eh      7.73 kcal/mol|
|  sn= 9 | S(rot)=       0.01220754 Eh      7.66 kcal/mol|
|  sn=10 | S(rot)=       0.01210807 Eh      7.60 kcal/mol|
|  sn=11 | S(rot)=       0.01201808 Eh      7.54 kcal/mol|
|  sn=12 | S(rot)=       0.01193592 Eh      7.49 kcal/mol|
 --------------------------------------------------------

-------------------
GIBBS FREE ENERGY
-------------------

The Gibbs free energy is G = H - T*S

Total enthalpy                    ...  -1223.29510371 Eh
Total entropy correction          ...     -0.04371283 Eh    -27.43 kcal/mol
-----------------------------------------------------------------------
Final Gibbs free energy         ...  -1223.33881654 Eh

                             ****ORCA TERMINATED NORMALLY****
TOTAL RUN TIME: 0 days 0 hours 17 minutes 32 seconds 0 msec
