                         Program Version 5.0.4 -  RELEASE  -
|  1> # ORCA 5.0.4 - /users/bwb16179/postgrad/2024_03/DFT_Crest_Conformers/Opt/deprot/3_deprot_aq_3.inp # write input file
|  2> # Basic Mode
|  3> #
|  4> ! Opt Freq wB97X Def2-SVP D4 SlowConv TightSCF Defgrid2 Def2/J RIJCOSX CPCM(Water)
|  5>
|  6>
|  7>
|  8> %maxcore 4500
|  9>
| 10> %geom
| 11> Maxiter 150
| 12> END
| 13>
| 14> * xyzfile 0 1 3_deprot_aq_3.xyz
| 15>
| 16>                          ****END OF INPUT****
 Total Charge           Charge          ....    0
 Multiplicity           Mult            ....    1
 Number of Electrons    NEL             ....   84
Dispersion correction           -0.002555610
FINAL SINGLE POINT ENERGY     -1223.411348724816
Dispersion correction            ... Starting D4
Dispersion correction           -0.002551020
FINAL SINGLE POINT ENERGY     -1223.412422968692
Dispersion correction            ... Starting D4
Dispersion correction           -0.002550744
FINAL SINGLE POINT ENERGY     -1223.412463025627
Dispersion correction            ... Starting D4
Dispersion correction           -0.002550832
FINAL SINGLE POINT ENERGY     -1223.412468868454
Dispersion correction            ... Starting D4
                    ***********************HURRAY********************

CARTESIAN COORDINATES (ANGSTROEM)
---------------------------------
  N     -1.069514   -1.176692   -0.002280
  C     -0.000008   -2.015606   -0.003262
  N      1.069483   -1.176677   -0.001575
  C      0.678771    0.150445    0.001237
  C     -0.678837    0.150429    0.000941
  C     -2.445903   -1.648382    0.000909
  C      2.445887   -1.648359    0.000281
  H     -3.127160   -0.789907   -0.032721
  H     -2.642944   -2.226391    0.913503
  H     -2.624774   -2.282862   -0.876914
  H      2.638353   -2.240404    0.904741
  H      3.127122   -0.789377   -0.016663
  H      2.629420   -2.269107   -0.886430
  Cl     1.739929    1.483205    0.003148
  Cl    -1.740071    1.483130    0.002735

 Multiplicity           Mult            ....    1
 Number of Electrons    NEL             ....   84
 Basis Dimension        Dim             ....  164

ORBITAL ENERGIES
----------------

  NO   OCC          E(Eh)            E(eV)
   0   2.0000    -101.502778     -2762.0310
   1   2.0000    -101.502761     -2762.0305
   2   2.0000     -14.472060      -393.8048
   3   2.0000     -14.472059      -393.8047
   4   2.0000     -10.361825      -281.9596
   5   2.0000     -10.361251      -281.9440
   6   2.0000     -10.308218      -280.5009
   7   2.0000     -10.308192      -280.5002
   8   2.0000     -10.292483      -280.0727
   9   2.0000      -9.575301      -260.5572
  10   2.0000      -9.575278      -260.5566
  11   2.0000      -7.344364      -199.8503
  12   2.0000      -7.344358      -199.8501
  13   2.0000      -7.333092      -199.5436
  14   2.0000      -7.333078      -199.5432
  15   2.0000      -7.332989      -199.5408
  16   2.0000      -7.332984      -199.5406
  17   2.0000      -1.177045       -32.0290
  18   2.0000      -1.066025       -29.0080
  19   2.0000      -1.026760       -27.9396
  20   2.0000      -0.991126       -26.9699
  21   2.0000      -0.903059       -24.5735
  22   2.0000      -0.835222       -22.7275
  23   2.0000      -0.809202       -22.0195
  24   2.0000      -0.714313       -19.4374
  25   2.0000      -0.710693       -19.3389
  26   2.0000      -0.639152       -17.3922
  27   2.0000      -0.614719       -16.7273
  28   2.0000      -0.580961       -15.8088
  29   2.0000      -0.567760       -15.4495
  30   2.0000      -0.559178       -15.2160
  31   2.0000      -0.557355       -15.1664
  32   2.0000      -0.519127       -14.1262
  33   2.0000      -0.511191       -13.9102
  34   2.0000      -0.498013       -13.5516
  35   2.0000      -0.471292       -12.8245
  36   2.0000      -0.456347       -12.4178
  37   2.0000      -0.449385       -12.2284
  38   2.0000      -0.441153       -12.0044
  39   2.0000      -0.381329       -10.3765
  40   2.0000      -0.335824        -9.1382
  41   2.0000      -0.320019        -8.7082
  42   0.0000       0.105586         2.8731
  43   0.0000       0.109619         2.9829
  44   0.0000       0.126632         3.4458
  45   0.0000       0.169137         4.6025
  46   0.0000       0.178287         4.8514

MULLIKEN ATOMIC CHARGES
-----------------------
   0 N :   -0.235989
   1 C :   -0.174602
   2 N :   -0.235999
   3 C :    0.090399
   4 C :    0.090391
   5 C :    0.095968
   6 C :    0.095989
   7 H :    0.056817
   8 H :    0.070686
   9 H :    0.070098
  10 H :    0.070551
  11 H :    0.056792
  12 H :    0.070237
  13 Cl:   -0.060666
  14 Cl:   -0.060671
Sum of atomic charges:   -0.0000000

LOEWDIN ATOMIC CHARGES
----------------------
   0 N :    0.015655
   1 C :   -0.285517
   2 N :    0.015645
   3 C :   -0.178131
   4 C :   -0.178139
   5 C :    0.033679
   6 C :    0.033685
   7 H :    0.028677
   8 H :    0.040438
   9 H :    0.040705
  10 H :    0.040501
  11 H :    0.028662
  12 H :    0.040642
  13 Cl:    0.161755
  14 Cl:    0.161742

  Mayer bond orders larger than 0.100000
B(  0-N ,  1-C ) :   1.2308 B(  0-N ,  4-C ) :   1.1379 B(  0-N ,  5-C ) :   0.9233
B(  1-C ,  2-N ) :   1.2307 B(  2-N ,  3-C ) :   1.1379 B(  2-N ,  6-C ) :   0.9233
B(  3-C ,  4-C ) :   1.5765 B(  3-C , 13-Cl) :   1.0768 B(  4-C , 14-Cl) :   1.0768
B(  5-C ,  7-H ) :   0.9709 B(  5-C ,  8-H ) :   0.9782 B(  5-C ,  9-H ) :   0.9778
B(  6-C , 10-H ) :   0.9781 B(  6-C , 11-H ) :   0.9708 B(  6-C , 12-H ) :   0.9779

Dispersion correction           -0.002550936
FINAL SINGLE POINT ENERGY     -1223.412470982641

DIPOLE MOMENT
-------------
                                X             Y             Z
Electronic contribution:     -0.00034      14.39160       0.00932
Nuclear contribution   :      0.00032     -13.96099      -0.00563
                        -----------------------------------------
Total Dipole Moment    :     -0.00001       0.43061       0.00369
                        -----------------------------------------
Magnitude (a.u.)       :      0.43063
Magnitude (Debye)      :      1.09457

Dispersion correction in the Hessian             ... Starting D4

VIBRATIONAL FREQUENCIES
-----------------------

Scaling factor for frequencies =  1.000000000  (already applied!)

   0:         0.00 cm**-1
   1:         0.00 cm**-1
   2:         0.00 cm**-1
   3:         0.00 cm**-1
   4:         0.00 cm**-1
   5:         0.00 cm**-1
   6:      -120.91 cm**-1 ***imaginary mode***
   7:      -111.87 cm**-1 ***imaginary mode***
   8:       105.24 cm**-1
   9:       167.59 cm**-1
  10:       177.51 cm**-1
  11:       248.21 cm**-1
  12:       266.40 cm**-1
  13:       305.93 cm**-1
  14:       338.13 cm**-1
  15:       442.44 cm**-1
  16:       540.37 cm**-1
  17:       579.14 cm**-1
  18:       638.36 cm**-1
  19:       657.60 cm**-1
  20:       671.10 cm**-1
  21:       884.85 cm**-1
  22:      1090.77 cm**-1
  23:      1109.60 cm**-1
  24:      1111.25 cm**-1
  25:      1138.38 cm**-1
  26:      1139.53 cm**-1
  27:      1178.72 cm**-1
  28:      1367.91 cm**-1
  29:      1402.12 cm**-1
  30:      1434.69 cm**-1
  31:      1443.56 cm**-1
  32:      1453.29 cm**-1
  33:      1453.88 cm**-1
  34:      1464.20 cm**-1
  35:      1474.99 cm**-1
  36:      1490.14 cm**-1
  37:      1491.65 cm**-1
  38:      1691.78 cm**-1
  39:      3096.72 cm**-1
  40:      3097.52 cm**-1
  41:      3204.82 cm**-1
  42:      3204.90 cm**-1
  43:      3224.72 cm**-1
  44:      3224.74 cm**-1

IR SPECTRUM
-----------

 Mode   freq       eps      Int      T**2         TX        TY        TZ
       cm**-1   L/(mol*cm) km/mol    a.u.
----------------------------------------------------------------------------
  8:    105.24   0.000000    0.00  0.000000  (-0.000314 -0.000204 -0.000258)
  9:    167.59   0.002646   13.37  0.004928  (-0.000077 -0.000928 -0.070191)
 10:    177.51   0.000077    0.39  0.000135  (-0.000002  0.011628 -0.000455)
 11:    248.21   0.001139    5.76  0.001432  ( 0.000120  0.000296  0.037845)
 12:    266.40   0.000036    0.18  0.000043  ( 0.006517 -0.000030  0.000443)
 13:    305.93   0.002274   11.49  0.002320  (-0.000021 -0.048154  0.000890)
 14:    338.13   0.000001    0.00  0.000001  ( 0.000697 -0.000461  0.000016)
 15:    442.44   0.002037   10.29  0.001437  (-0.037902  0.000015  0.000055)
 16:    540.37   0.001339    6.77  0.000773  (-0.000029  0.027805 -0.000071)
 17:    579.14   0.001438    7.26  0.000775  (-0.027832 -0.000037 -0.000041)
 18:    638.36   0.000546    2.76  0.000267  ( 0.000133  0.000696 -0.016318)
 19:    657.60   0.001540    7.78  0.000731  ( 0.000020  0.027036  0.000291)
 20:    671.10   0.000001    0.00  0.000000  ( 0.000474 -0.000215  0.000002)
 21:    884.85   0.000000    0.00  0.000000  ( 0.000130 -0.000016  0.000044)
 22:   1090.77   0.001034    5.23  0.000296  (-0.000099 -0.017198  0.000091)
 23:   1109.60   0.017607   88.98  0.004952  ( 0.001095 -0.070360  0.000157)
 24:   1111.25   0.005999   30.32  0.001685  (-0.041006 -0.001776 -0.000018)
 25:   1138.38   0.000064    0.33  0.000018  (-0.004190 -0.000163  0.000279)
 26:   1139.53   0.000079    0.40  0.000022  (-0.000895 -0.000421  0.004532)
 27:   1178.72   0.010327   52.19  0.002734  ( 0.052287 -0.000028  0.000078)
 28:   1367.91   0.005614   28.37  0.001281  ( 0.035786  0.000012 -0.000174)
 29:   1402.12   0.000238    1.20  0.000053  ( 0.000136  0.007190  0.001116)
 30:   1434.69   0.009373   47.37  0.002039  (-0.045143 -0.000141  0.000946)
 31:   1443.56   0.000989    5.00  0.000214  ( 0.001339 -0.013253  0.006035)
 32:   1453.29   0.004092   20.68  0.000879  ( 0.008503  0.004604  0.028020)
 33:   1453.88   0.003362   16.99  0.000722  (-0.005288  0.002341  0.026235)
 34:   1464.20   0.003444   17.40  0.000734  (-0.001197  0.026368 -0.006111)
 35:   1474.99   0.009684   48.94  0.002049  ( 0.045247 -0.000107 -0.001219)
 36:   1490.14   0.008270   41.80  0.001732  (-0.041520 -0.002840  0.000036)
 37:   1491.65   0.015872   80.21  0.003321  ( 0.001684 -0.057590 -0.001067)
 38:   1691.78   0.004228   21.37  0.000780  (-0.000002 -0.027927 -0.000205)
 39:   3096.72   0.009991   50.49  0.001007  ( 0.031728  0.000280 -0.000180)
 40:   3097.52   0.002334   11.80  0.000235  (-0.000597  0.015313 -0.000556)
 41:   3204.82   0.002371   11.98  0.000231  (-0.000032 -0.000042  0.015195)
 42:   3204.90   0.000134    0.68  0.000013  ( 0.000037 -0.000008  0.003612)
 43:   3224.72   0.000067    0.34  0.000007  (-0.001352 -0.002168 -0.000040)
 44:   3224.74   0.000252    1.27  0.000024  (-0.000591  0.004900  0.000215)

--------------------------
THERMOCHEMISTRY AT 298.15K
--------------------------

Temperature         ... 298.15 K
Pressure            ... 1.00 atm
Total Mass          ... 165.02 AMU

Throughout the following assumptions are being made:
  (1) The electronic state is orbitally nondegenerate
  (2) There are no thermally accessible electronically excited states
  (3) Hindered rotations indicated by low frequency modes are not
      treated as such but are treated as vibrations and this may
      cause some error
  (4) All equations used are the standard statistical mechanics
      equations for an ideal gas
  (5) All vibrations are strictly harmonic

freq.     105.24  E(vib)   ...       0.45
freq.     167.59  E(vib)   ...       0.38
freq.     177.51  E(vib)   ...       0.37
freq.     248.21  E(vib)   ...       0.31
freq.     266.40  E(vib)   ...       0.29
freq.     305.93  E(vib)   ...       0.26
freq.     338.13  E(vib)   ...       0.24
freq.     442.44  E(vib)   ...       0.17
freq.     540.37  E(vib)   ...       0.12
freq.     579.14  E(vib)   ...       0.11
freq.     638.36  E(vib)   ...       0.09
freq.     657.60  E(vib)   ...       0.08
freq.     671.10  E(vib)   ...       0.08
freq.     884.85  E(vib)   ...       0.04
freq.    1090.77  E(vib)   ...       0.02
freq.    1109.60  E(vib)   ...       0.02
freq.    1111.25  E(vib)   ...       0.01
freq.    1138.38  E(vib)   ...       0.01
freq.    1139.53  E(vib)   ...       0.01
freq.    1178.72  E(vib)   ...       0.01
freq.    1367.91  E(vib)   ...       0.01
freq.    1402.12  E(vib)   ...       0.00
freq.    1434.69  E(vib)   ...       0.00
freq.    1443.56  E(vib)   ...       0.00
freq.    1453.29  E(vib)   ...       0.00
freq.    1453.88  E(vib)   ...       0.00
freq.    1464.20  E(vib)   ...       0.00
freq.    1474.99  E(vib)   ...       0.00
freq.    1490.14  E(vib)   ...       0.00
freq.    1491.65  E(vib)   ...       0.00
freq.    1691.78  E(vib)   ...       0.00
freq.    3096.72  E(vib)   ...       0.00
freq.    3097.52  E(vib)   ...       0.00
freq.    3204.82  E(vib)   ...       0.00
freq.    3204.90  E(vib)   ...       0.00
freq.    3224.72  E(vib)   ...       0.00
freq.    3224.74  E(vib)   ...       0.00

------------
INNER ENERGY
------------

The inner energy is: U= E(el) + E(ZPE) + E(vib) + E(rot) + E(trans)
    E(el)   - is the total energy from the electronic structure calculation
              = E(kin-el) + E(nuc-el) + E(el-el) + E(nuc-nuc)
    E(ZPE)  - the the zero temperature vibrational energy from the frequency calculation
    E(vib)  - the the finite temperature correction to E(ZPE) due to population
              of excited vibrational states
    E(rot)  - is the rotational thermal energy
    E(trans)- is the translational thermal energy

Summary of contributions to the inner energy U:
Electronic energy                ...  -1223.41247098 Eh
Zero point energy                ...      0.10938112 Eh      68.64 kcal/mol
Thermal vibrational correction   ...      0.00496501 Eh       3.12 kcal/mol
Thermal rotational correction    ...      0.00141627 Eh       0.89 kcal/mol
Thermal translational correction ...      0.00141627 Eh       0.89 kcal/mol
-----------------------------------------------------------------------
Total thermal energy                  -1223.29529231 Eh

Summary of corrections to the electronic energy:
(perhaps to be used in another calculation)
Total thermal correction                  0.00779755 Eh       4.89 kcal/mol
Non-thermal (ZPE) correction              0.10938112 Eh      68.64 kcal/mol
-----------------------------------------------------------------------
Total correction                          0.11717867 Eh      73.53 kcal/mol

--------
ENTHALPY
--------

The enthalpy is H = U + kB*T
                kB is Boltzmann's constant
Total free energy                 ...  -1223.29529231 Eh
Thermal Enthalpy correction       ...      0.00094421 Eh       0.59 kcal/mol
-----------------------------------------------------------------------
Total Enthalpy                    ...  -1223.29434810 Eh

Note: Only C1 symmetry has been detected, increase convergence thresholds
      if your molecule has a higher symmetry. Symmetry factor of 1.0 is
      used for the rotational entropy correction.

Note: Rotational entropy computed according to Herzberg
Infrared and Raman Spectra, Chapter V,1, Van Nostrand Reinhold, 1945
Point Group:  C1, Symmetry Number:   1
Rotational constants in cm-1:     0.050418     0.037261     0.021604

Vibrational entropy computed according to the QRRHO of S. Grimme
Chem.Eur.J. 2012 18 9955

-------
ENTROPY
-------

The entropy contributions are T*S = T*(S(el)+S(vib)+S(rot)+S(trans))
     S(el)   - electronic entropy
     S(vib)  - vibrational entropy
     S(rot)  - rotational entropy
     S(trans)- translational entropy
The entropies will be listed as multiplied by the temperature to get
units of energy

Electronic entropy                ...      0.00000000 Eh      0.00 kcal/mol
Vibrational entropy               ...      0.00831199 Eh      5.22 kcal/mol
Rotational entropy                ...      0.01428463 Eh      8.96 kcal/mol
Translational entropy             ...      0.01958067 Eh     12.29 kcal/mol
-----------------------------------------------------------------------
Final entropy term                ...      0.04217730 Eh     26.47 kcal/mol

In case the symmetry of your molecule has not been determined correctly
or in case you have a reason to use a different symmetry number we print
out the resulting rotational entropy values for sn=1,12 :
 --------------------------------------------------------
|  sn= 1 | S(rot)=       0.01428463 Eh      8.96 kcal/mol|
|  sn= 2 | S(rot)=       0.01363017 Eh      8.55 kcal/mol|
|  sn= 3 | S(rot)=       0.01324734 Eh      8.31 kcal/mol|
|  sn= 4 | S(rot)=       0.01297572 Eh      8.14 kcal/mol|
|  sn= 5 | S(rot)=       0.01276503 Eh      8.01 kcal/mol|
|  sn= 6 | S(rot)=       0.01259289 Eh      7.90 kcal/mol|
|  sn= 7 | S(rot)=       0.01244734 Eh      7.81 kcal/mol|
|  sn= 8 | S(rot)=       0.01232126 Eh      7.73 kcal/mol|
|  sn= 9 | S(rot)=       0.01221005 Eh      7.66 kcal/mol|
|  sn=10 | S(rot)=       0.01211057 Eh      7.60 kcal/mol|
|  sn=11 | S(rot)=       0.01202058 Eh      7.54 kcal/mol|
|  sn=12 | S(rot)=       0.01193843 Eh      7.49 kcal/mol|
 --------------------------------------------------------

-------------------
GIBBS FREE ENERGY
-------------------

The Gibbs free energy is G = H - T*S

Total enthalpy                    ...  -1223.29434810 Eh
Total entropy correction          ...     -0.04217730 Eh    -26.47 kcal/mol
-----------------------------------------------------------------------
Final Gibbs free energy         ...  -1223.33652540 Eh

                             ****ORCA TERMINATED NORMALLY****
TOTAL RUN TIME: 0 days 0 hours 19 minutes 19 seconds 710 msec
