                         Program Version 5.0.4 -  RELEASE  -
|  1> # ORCA 5.0.4 - /users/bwb16179/postgrad/2024_03/DFT_Crest_Conformers/Opt/prot/3_prot_aq_2.inp # write input file
|  2> # Basic Mode
|  3> #
|  4> ! Opt Freq wB97X Def2-SVP D4 SlowConv TightSCF Defgrid2 Def2/J RIJCOSX CPCM(Water)
|  5>
|  6>
|  7>
|  8> %maxcore 4500
|  9>
| 10> %geom
| 11> Maxiter 150
| 12> END
| 13>
| 14> * xyzfile 1 1 3_prot_aq_2.xyz
| 15>
| 16>                          ****END OF INPUT****
 Total Charge           Charge          ....    1
 Multiplicity           Mult            ....    1
 Number of Electrons    NEL             ....   84
Dispersion correction           -0.002509284
FINAL SINGLE POINT ENERGY     -1223.904586630048
Dispersion correction            ... Starting D4
Dispersion correction           -0.002507074
FINAL SINGLE POINT ENERGY     -1223.906144138330
Dispersion correction            ... Starting D4
Dispersion correction           -0.002506731
FINAL SINGLE POINT ENERGY     -1223.906304738078
Dispersion correction            ... Starting D4
Dispersion correction           -0.002506599
FINAL SINGLE POINT ENERGY     -1223.906338035276
Dispersion correction            ... Starting D4
Dispersion correction           -0.002506616
FINAL SINGLE POINT ENERGY     -1223.906342452500
Dispersion correction            ... Starting D4
                    ***********************HURRAY********************

CARTESIAN COORDINATES (ANGSTROEM)
---------------------------------
  N     -1.081901   -1.138351    0.000063
  C      0.003718   -1.906111    0.000227
  N      1.092831   -1.140243    0.000180
  C      0.688226    0.179476   -0.000041
  C     -0.676935    0.179089   -0.000101
  C     -2.467473   -1.601102   -0.000004
  C      2.468821   -1.638196   -0.000098
  H     -2.971436   -1.227554   -0.900356
  H     -2.971851   -1.226548    0.899693
  H     -2.463718   -2.696704    0.000619
  H      3.145886   -0.777740    0.003751
  H      2.636149   -2.237394   -0.903214
  H      2.634051   -2.243776    0.899121
  H      0.002756   -2.996778    0.000396
  Cl     1.749130    1.494142   -0.000193
  Cl    -1.757785    1.476715   -0.000275

 Multiplicity           Mult            ....    1
 Number of Electrons    NEL             ....   84
 Basis Dimension        Dim             ....  169

ORBITAL ENERGIES
----------------

  NO   OCC          E(Eh)            E(eV)
   0   2.0000    -101.524466     -2762.6212
   1   2.0000    -101.523697     -2762.6003
   2   2.0000     -14.534967      -395.5165
   3   2.0000     -14.534095      -395.4928
   4   2.0000     -10.402420      -283.0642
   5   2.0000     -10.401723      -283.0453
   6   2.0000     -10.400416      -283.0097
   7   2.0000     -10.336318      -281.2655
   8   2.0000     -10.334935      -281.2279
   9   2.0000      -9.597070      -261.1495
  10   2.0000      -9.596298      -261.1286
  11   2.0000      -7.366451      -200.4513
  12   2.0000      -7.365709      -200.4311
  13   2.0000      -7.354625      -200.1295
  14   2.0000      -7.354560      -200.1278
  15   2.0000      -7.353853      -200.1085
  16   2.0000      -7.353775      -200.1064
  17   2.0000      -1.243566       -33.8391
  18   2.0000      -1.121842       -30.5269
  19   2.0000      -1.059457       -28.8293
  20   2.0000      -1.021625       -27.7998
  21   2.0000      -0.942722       -25.6528
  22   2.0000      -0.894318       -24.3356
  23   2.0000      -0.847825       -23.0705
  24   2.0000      -0.773240       -21.0409
  25   2.0000      -0.763599       -20.7786
  26   2.0000      -0.685704       -18.6590
  27   2.0000      -0.665329       -18.1045
  28   2.0000      -0.619683       -16.8624
  29   2.0000      -0.614059       -16.7094
  30   2.0000      -0.602037       -16.3823
  31   2.0000      -0.592153       -16.1133
  32   2.0000      -0.591337       -16.0911
  33   2.0000      -0.542314       -14.7571
  34   2.0000      -0.537736       -14.6325
  35   2.0000      -0.530874       -14.4458
  36   2.0000      -0.496297       -13.5049
  37   2.0000      -0.492039       -13.3891
  38   2.0000      -0.463262       -12.6060
  39   2.0000      -0.461842       -12.5674
  40   2.0000      -0.423550       -11.5254
  41   2.0000      -0.360667        -9.8142
  42   0.0000       0.044689         1.2160
  43   0.0000       0.074129         2.0171
  44   0.0000       0.101141         2.7522
  45   0.0000       0.148450         4.0395
  46   0.0000       0.159162         4.3310

MULLIKEN ATOMIC CHARGES
-----------------------
   0 N :   -0.210669
   1 C :    0.253537
   2 N :   -0.222191
   3 C :    0.127714
   4 C :    0.125186
   5 C :    0.075729
   6 C :    0.080181
   7 H :    0.104701
   8 H :    0.104680
   9 H :    0.103791
  10 H :    0.087922
  11 H :    0.108492
  12 H :    0.108440
  13 H :    0.153131
  14 Cl:    0.000203
  15 Cl:   -0.000847
Sum of atomic charges:    1.0000000

LOEWDIN ATOMIC CHARGES
----------------------
   0 N :    0.088233
   1 C :    0.151895
   2 N :    0.083044
   3 C :   -0.141582
   4 C :   -0.145369
   5 C :    0.056951
   6 C :    0.058751
   7 H :    0.055707
   8 H :    0.055697
   9 H :    0.061501
  10 H :    0.044727
  11 H :    0.059668
  12 H :    0.059702
  13 H :    0.080911
  14 Cl:    0.217173
  15 Cl:    0.212989

  Mayer bond orders larger than 0.100000
B(  0-N ,  1-C ) :   1.3564 B(  0-N ,  4-C ) :   1.1705 B(  0-N ,  5-C ) :   0.8809
B(  1-C ,  2-N ) :   1.3464 B(  1-C , 13-H ) :   0.9630 B(  2-N ,  3-C ) :   1.1698
B(  2-N ,  6-C ) :   0.8774 B(  3-C ,  4-C ) :   1.5487 B(  3-C , 14-Cl) :   1.1344
B(  4-C , 15-Cl) :   1.1346 B(  5-C ,  7-H ) :   0.9712 B(  5-C ,  8-H ) :   0.9712
B(  5-C ,  9-H ) :   0.9679 B(  6-C , 10-H ) :   0.9673 B(  6-C , 11-H ) :   0.9720
B(  6-C , 12-H ) :   0.9720

Dispersion correction           -0.002506634
FINAL SINGLE POINT ENERGY     -1223.906343083831

DIPOLE MOMENT
-------------
                                X             Y             Z
Electronic contribution:     -0.02874      13.41296      -0.00070
Nuclear contribution   :      0.02150     -16.63402       0.00095
                        -----------------------------------------
Total Dipole Moment    :     -0.00724      -3.22106       0.00025
                        -----------------------------------------
Magnitude (a.u.)       :      3.22107
Magnitude (Debye)      :      8.18731

Dispersion correction in the Hessian             ... Starting D4

VIBRATIONAL FREQUENCIES
-----------------------

Scaling factor for frequencies =  1.000000000  (already applied!)

   0:         0.00 cm**-1
   1:         0.00 cm**-1
   2:         0.00 cm**-1
   3:         0.00 cm**-1
   4:         0.00 cm**-1
   5:         0.00 cm**-1
   6:      -113.11 cm**-1 ***imaginary mode***
   7:        79.12 cm**-1
   8:       106.20 cm**-1
   9:       161.69 cm**-1
  10:       175.01 cm**-1
  11:       244.33 cm**-1
  12:       272.26 cm**-1
  13:       284.20 cm**-1
  14:       326.81 cm**-1
  15:       445.78 cm**-1
  16:       547.47 cm**-1
  17:       555.03 cm**-1
  18:       638.11 cm**-1
  19:       651.86 cm**-1
  20:       692.79 cm**-1
  21:       870.73 cm**-1
  22:       874.04 cm**-1
  23:      1101.62 cm**-1
  24:      1111.18 cm**-1
  25:      1136.97 cm**-1
  26:      1137.10 cm**-1
  27:      1142.94 cm**-1
  28:      1205.34 cm**-1
  29:      1226.89 cm**-1
  30:      1412.24 cm**-1
  31:      1425.76 cm**-1
  32:      1434.62 cm**-1
  33:      1438.29 cm**-1
  34:      1439.86 cm**-1
  35:      1450.33 cm**-1
  36:      1467.48 cm**-1
  37:      1494.11 cm**-1
  38:      1523.65 cm**-1
  39:      1655.00 cm**-1
  40:      1675.90 cm**-1
  41:      3104.12 cm**-1
  42:      3112.57 cm**-1
  43:      3226.51 cm**-1
  44:      3232.72 cm**-1
  45:      3238.61 cm**-1
  46:      3250.02 cm**-1
  47:      3297.54 cm**-1

IR SPECTRUM
-----------

 Mode   freq       eps      Int      T**2         TX        TY        TZ
       cm**-1   L/(mol*cm) km/mol    a.u.
----------------------------------------------------------------------------
  7:     79.12   0.000049    0.25  0.000194  ( 0.000008  0.000022 -0.013941)
  8:    106.20   0.000003    0.02  0.000009  ( 0.000035 -0.000030  0.002987)
  9:    161.69   0.001142    5.77  0.002205  (-0.000025  0.000039 -0.046954)
 10:    175.01   0.000293    1.48  0.000522  (-0.000754 -0.022825  0.000003)
 11:    244.33   0.000082    0.42  0.000105  (-0.002732  0.009876 -0.000034)
 12:    272.26   0.000285    1.44  0.000326  ( 0.000023 -0.000113 -0.018066)
 13:    284.20   0.001000    5.05  0.001098  ( 0.000303  0.033134 -0.000013)
 14:    326.81   0.000009    0.05  0.000009  (-0.000036 -0.000073 -0.002992)
 15:    445.78   0.002503   12.65  0.001752  (-0.041844  0.001168 -0.000004)
 16:    547.47   0.002658   13.43  0.001515  (-0.003929 -0.038725  0.000001)
 17:    555.03   0.000465    2.35  0.000261  ( 0.006557 -0.014781  0.000014)
 18:    638.11   0.005453   27.56  0.002667  (-0.000016  0.000004 -0.051641)
 19:    651.86   0.000082    0.42  0.000039  ( 0.002650 -0.005695 -0.000156)
 20:    692.79   0.000002    0.01  0.000001  (-0.000025 -0.000007  0.001009)
 21:    870.73   0.000091    0.46  0.000033  ( 0.005714 -0.000231  0.000160)
 22:    874.04   0.002373   11.99  0.000847  (-0.000038  0.000011  0.029106)
 23:   1101.62   0.003774   19.07  0.001069  (-0.020630  0.025369 -0.000011)
 24:   1111.18   0.001214    6.13  0.000341  (-0.006352 -0.017336  0.000024)
 25:   1136.97   0.000932    4.71  0.000256  (-0.001328  0.015826  0.001876)
 26:   1137.10   0.002527   12.77  0.000693  (-0.001930  0.026241 -0.001056)
 27:   1142.94   0.000249    1.26  0.000068  (-0.000053 -0.000055  0.008247)
 28:   1205.34   0.026666  134.76  0.006904  ( 0.083069  0.001814  0.000012)
 29:   1226.89   0.006078   30.72  0.001546  ( 0.039154 -0.003596 -0.000007)
 30:   1412.24   0.000567    2.87  0.000125  (-0.003578  0.010607 -0.000006)
 31:   1425.76   0.000831    4.20  0.000182  (-0.013487  0.000086  0.000061)
 32:   1434.62   0.002803   14.17  0.000610  ( 0.022961  0.009080 -0.000423)
 33:   1438.29   0.002861   14.46  0.000621  (-0.002012  0.024834  0.000148)
 34:   1439.86   0.005781   29.21  0.001253  (-0.000064 -0.000339 -0.035394)
 35:   1450.33   0.005006   25.30  0.001077  (-0.000399  0.000313 -0.032817)
 36:   1467.48   0.015908   80.39  0.003383  (-0.002152 -0.058123  0.000028)
 37:   1494.11   0.003584   18.11  0.000749  (-0.027192 -0.003021  0.000073)
 38:   1523.65   0.000345    1.74  0.000071  (-0.008306  0.001272  0.000029)
 39:   1655.00   0.030157  152.40  0.005686  (-0.074375 -0.012433  0.000021)
 40:   1675.90   0.018553   93.76  0.003455  ( 0.017117 -0.056228  0.000016)
 41:   3104.12   0.000948    4.79  0.000095  ( 0.008944  0.003909  0.000001)
 42:   3112.57   0.001289    6.51  0.000129  (-0.009726  0.005883  0.000018)
 43:   3226.51   0.000055    0.28  0.000005  (-0.000001  0.000001 -0.002303)
 44:   3232.72   0.000072    0.37  0.000007  (-0.000007 -0.000011 -0.002642)
 45:   3238.61   0.000211    1.06  0.000020  ( 0.001218 -0.004337  0.000001)
 46:   3250.02   0.000476    2.41  0.000046  (-0.001593 -0.006573 -0.000001)
 47:   3297.54   0.016207   81.91  0.001534  ( 0.000188 -0.039163  0.000006)

--------------------------
THERMOCHEMISTRY AT 298.15K
--------------------------

Temperature         ... 298.15 K
Pressure            ... 1.00 atm
Total Mass          ... 166.03 AMU

Throughout the following assumptions are being made:
  (1) The electronic state is orbitally nondegenerate
  (2) There are no thermally accessible electronically excited states
  (3) Hindered rotations indicated by low frequency modes are not
      treated as such but are treated as vibrations and this may
      cause some error
  (4) All equations used are the standard statistical mechanics
      equations for an ideal gas
  (5) All vibrations are strictly harmonic

freq.      79.12  E(vib)   ...       0.49
freq.     106.20  E(vib)   ...       0.45
freq.     161.69  E(vib)   ...       0.39
freq.     175.01  E(vib)   ...       0.38
freq.     244.33  E(vib)   ...       0.31
freq.     272.26  E(vib)   ...       0.29
freq.     284.20  E(vib)   ...       0.28
freq.     326.81  E(vib)   ...       0.24
freq.     445.78  E(vib)   ...       0.17
freq.     547.47  E(vib)   ...       0.12
freq.     555.03  E(vib)   ...       0.12
freq.     638.11  E(vib)   ...       0.09
freq.     651.86  E(vib)   ...       0.08
freq.     692.79  E(vib)   ...       0.07
freq.     870.73  E(vib)   ...       0.04
freq.     874.04  E(vib)   ...       0.04
freq.    1101.62  E(vib)   ...       0.02
freq.    1111.18  E(vib)   ...       0.01
freq.    1136.97  E(vib)   ...       0.01
freq.    1137.10  E(vib)   ...       0.01
freq.    1142.94  E(vib)   ...       0.01
freq.    1205.34  E(vib)   ...       0.01
freq.    1226.89  E(vib)   ...       0.01
freq.    1412.24  E(vib)   ...       0.00
freq.    1425.76  E(vib)   ...       0.00
freq.    1434.62  E(vib)   ...       0.00
freq.    1438.29  E(vib)   ...       0.00
freq.    1439.86  E(vib)   ...       0.00
freq.    1450.33  E(vib)   ...       0.00
freq.    1467.48  E(vib)   ...       0.00
freq.    1494.11  E(vib)   ...       0.00
freq.    1523.65  E(vib)   ...       0.00
freq.    1655.00  E(vib)   ...       0.00
freq.    1675.90  E(vib)   ...       0.00
freq.    3104.12  E(vib)   ...       0.00
freq.    3112.57  E(vib)   ...       0.00
freq.    3226.51  E(vib)   ...       0.00
freq.    3232.72  E(vib)   ...       0.00
freq.    3238.61  E(vib)   ...       0.00
freq.    3250.02  E(vib)   ...       0.00
freq.    3297.54  E(vib)   ...       0.00

------------
INNER ENERGY
------------

The inner energy is: U= E(el) + E(ZPE) + E(vib) + E(rot) + E(trans)
    E(el)   - is the total energy from the electronic structure calculation
              = E(kin-el) + E(nuc-el) + E(el-el) + E(nuc-nuc)
    E(ZPE)  - the the zero temperature vibrational energy from the frequency calculation
    E(vib)  - the the finite temperature correction to E(ZPE) due to population
              of excited vibrational states
    E(rot)  - is the rotational thermal energy
    E(trans)- is the translational thermal energy

Summary of contributions to the inner energy U:
Electronic energy                ...  -1223.90634308 Eh
Zero point energy                ...      0.12271758 Eh      77.01 kcal/mol
Thermal vibrational correction   ...      0.00585862 Eh       3.68 kcal/mol
Thermal rotational correction    ...      0.00141627 Eh       0.89 kcal/mol
Thermal translational correction ...      0.00141627 Eh       0.89 kcal/mol
-----------------------------------------------------------------------
Total thermal energy                  -1223.77493434 Eh

Summary of corrections to the electronic energy:
(perhaps to be used in another calculation)
Total thermal correction                  0.00869117 Eh       5.45 kcal/mol
Non-thermal (ZPE) correction              0.12271758 Eh      77.01 kcal/mol
-----------------------------------------------------------------------
Total correction                          0.13140875 Eh      82.46 kcal/mol

--------
ENTHALPY
--------

The enthalpy is H = U + kB*T
                kB is Boltzmann's constant
Total free energy                 ...  -1223.77493434 Eh
Thermal Enthalpy correction       ...      0.00094421 Eh       0.59 kcal/mol
-----------------------------------------------------------------------
Total Enthalpy                    ...  -1223.77399013 Eh

Note: Only C1 symmetry has been detected, increase convergence thresholds
      if your molecule has a higher symmetry. Symmetry factor of 1.0 is
      used for the rotational entropy correction.

Note: Rotational entropy computed according to Herzberg
Infrared and Raman Spectra, Chapter V,1, Van Nostrand Reinhold, 1945
Point Group:  C1, Symmetry Number:   1
Rotational constants in cm-1:     0.050528     0.036660     0.021422

Vibrational entropy computed according to the QRRHO of S. Grimme
Chem.Eur.J. 2012 18 9955

-------
ENTROPY
-------

The entropy contributions are T*S = T*(S(el)+S(vib)+S(rot)+S(trans))
     S(el)   - electronic entropy
     S(vib)  - vibrational entropy
     S(rot)  - rotational entropy
     S(trans)- translational entropy
The entropies will be listed as multiplied by the temperature to get
units of energy

Electronic entropy                ...      0.00000000 Eh      0.00 kcal/mol
Vibrational entropy               ...      0.01009082 Eh      6.33 kcal/mol
Rotational entropy                ...      0.01429528 Eh      8.97 kcal/mol
Translational entropy             ...      0.01958930 Eh     12.29 kcal/mol
-----------------------------------------------------------------------
Final entropy term                ...      0.04397540 Eh     27.59 kcal/mol

In case the symmetry of your molecule has not been determined correctly
or in case you have a reason to use a different symmetry number we print
out the resulting rotational entropy values for sn=1,12 :
 --------------------------------------------------------
|  sn= 1 | S(rot)=       0.01429528 Eh      8.97 kcal/mol|
|  sn= 2 | S(rot)=       0.01364082 Eh      8.56 kcal/mol|
|  sn= 3 | S(rot)=       0.01325799 Eh      8.32 kcal/mol|
|  sn= 4 | S(rot)=       0.01298636 Eh      8.15 kcal/mol|
|  sn= 5 | S(rot)=       0.01277568 Eh      8.02 kcal/mol|
|  sn= 6 | S(rot)=       0.01260353 Eh      7.91 kcal/mol|
|  sn= 7 | S(rot)=       0.01245798 Eh      7.82 kcal/mol|
|  sn= 8 | S(rot)=       0.01233191 Eh      7.74 kcal/mol|
|  sn= 9 | S(rot)=       0.01222070 Eh      7.67 kcal/mol|
|  sn=10 | S(rot)=       0.01212122 Eh      7.61 kcal/mol|
|  sn=11 | S(rot)=       0.01203123 Eh      7.55 kcal/mol|
|  sn=12 | S(rot)=       0.01194907 Eh      7.50 kcal/mol|
 --------------------------------------------------------

-------------------
GIBBS FREE ENERGY
-------------------

The Gibbs free energy is G = H - T*S

Total enthalpy                    ...  -1223.77399013 Eh

                             ****ORCA TERMINATED NORMALLY****
TOTAL RUN TIME: 0 days 0 hours 23 minutes 24 seconds 986 msec
