                         Program Version 5.0.4 -  RELEASE  -
|  1> # ORCA 5.0.4 - /users/bwb16179/postgrad/2024_03/DFT_Crest_Conformers/Opt/prot/3_prot_aq_1.inp # write input file
|  2> # Basic Mode
|  3> #
|  4> ! Opt Freq wB97X Def2-SVP D4 SlowConv TightSCF Defgrid2 Def2/J RIJCOSX CPCM(Water)
|  5>
|  6>
|  7>
|  8> %maxcore 4500
|  9>
| 10> %geom
| 11> Maxiter 150
| 12> END
| 13>
| 14> * xyzfile 1 1 3_prot_aq_1.xyz
| 15>
| 16>                          ****END OF INPUT****
 Total Charge           Charge          ....    1
 Multiplicity           Mult            ....    1
 Number of Electrons    NEL             ....   84
Dispersion correction           -0.002510715
FINAL SINGLE POINT ENERGY     -1223.905916653835
Dispersion correction            ... Starting D4
Dispersion correction           -0.002508853
FINAL SINGLE POINT ENERGY     -1223.907464284766
Dispersion correction            ... Starting D4
Dispersion correction           -0.002508456
FINAL SINGLE POINT ENERGY     -1223.907636074425
Dispersion correction            ... Starting D4
Dispersion correction           -0.002508289
FINAL SINGLE POINT ENERGY     -1223.907669627887
Dispersion correction            ... Starting D4
Dispersion correction           -0.002508298
FINAL SINGLE POINT ENERGY     -1223.907673418322
Dispersion correction            ... Starting D4
                    ***********************HURRAY********************

CARTESIAN COORDINATES (ANGSTROEM)
---------------------------------
  N     -1.086563   -1.136640    0.000013
  C     -0.000015   -1.904709    0.000070
  N      1.086539   -1.136650    0.000005
  C      0.682332    0.181773   -0.000144
  C     -0.682344    0.181779   -0.000140
  C     -2.472112   -1.599289   -0.000062
  C      2.472084   -1.599315   -0.000030
  H     -2.977129   -1.223570    0.898807
  H     -2.468677   -2.694899    0.002256
  H     -2.975936   -1.227264   -0.901149
  H      2.976980   -1.223937    0.899051
  H      2.976037   -1.226961   -0.900906
  H      2.468635   -2.694926    0.001867
  H     -0.000027   -2.995479    0.000231
  Cl     1.763659    1.478704   -0.000249
  Cl    -1.763657    1.478721   -0.000246

 Multiplicity           Mult            ....    1
 Number of Electrons    NEL             ....   84
 Basis Dimension        Dim             ....  169

ORBITAL ENERGIES
----------------

  NO   OCC          E(Eh)            E(eV)
   0   2.0000    -101.523847     -2762.6043
   1   2.0000    -101.523832     -2762.6039
   2   2.0000     -14.534258      -395.4973
   3   2.0000     -14.534233      -395.4966
   4   2.0000     -10.402891      -283.0771
   5   2.0000     -10.401283      -283.0333
   6   2.0000     -10.400722      -283.0180
   7   2.0000     -10.336156      -281.2611
   8   2.0000     -10.336135      -281.2605
   9   2.0000      -9.596455      -261.1328
  10   2.0000      -9.596434      -261.1323
  11   2.0000      -7.365845      -200.4348
  12   2.0000      -7.365840      -200.4347
  13   2.0000      -7.354003      -200.1126
  14   2.0000      -7.353999      -200.1125
  15   2.0000      -7.353938      -200.1108
  16   2.0000      -7.353927      -200.1105
  17   2.0000      -1.243841       -33.8466
  18   2.0000      -1.122265       -30.5384
  19   2.0000      -1.058975       -28.8162
  20   2.0000      -1.021465       -27.7955
  21   2.0000      -0.942908       -25.6578
  22   2.0000      -0.895074       -24.3562
  23   2.0000      -0.847529       -23.0624
  24   2.0000      -0.773429       -21.0461
  25   2.0000      -0.763774       -20.7833
  26   2.0000      -0.685577       -18.6555
  27   2.0000      -0.665638       -18.1129
  28   2.0000      -0.618744       -16.8369
  29   2.0000      -0.614543       -16.7226
  30   2.0000      -0.601778       -16.3752
  31   2.0000      -0.592953       -16.1351
  32   2.0000      -0.591595       -16.0981
  33   2.0000      -0.540336       -14.7033
  34   2.0000      -0.538593       -14.6559
  35   2.0000      -0.530197       -14.4274
  36   2.0000      -0.498184       -13.5563
  37   2.0000      -0.490642       -13.3511
  38   2.0000      -0.462869       -12.5953
  39   2.0000      -0.462507       -12.5854
  40   2.0000      -0.423769       -11.5313
  41   2.0000      -0.360885        -9.8202
  42   0.0000       0.048756         1.3267
  43   0.0000       0.072248         1.9660
  44   0.0000       0.101730         2.7682
  45   0.0000       0.148808         4.0493
  46   0.0000       0.158528         4.3138

MULLIKEN ATOMIC CHARGES
-----------------------
   0 N :   -0.216592
   1 C :    0.246828
   2 N :   -0.216592
   3 C :    0.127414
   4 C :    0.127413
   5 C :    0.075949
   6 C :    0.075949
   7 H :    0.104212
   8 H :    0.103585
   9 H :    0.104305
  10 H :    0.104221
  11 H :    0.104296
  12 H :    0.103585
  13 H :    0.156379
  14 Cl:   -0.000475
  15 Cl:   -0.000476
Sum of atomic charges:    1.0000000

LOEWDIN ATOMIC CHARGES
----------------------
   0 N :    0.085427
   1 C :    0.149356
   2 N :    0.085427
   3 C :   -0.143257
   4 C :   -0.143256
   5 C :    0.056727
   6 C :    0.056727
   7 H :    0.055446
   8 H :    0.061434
   9 H :    0.055484
  10 H :    0.055450
  11 H :    0.055480
  12 H :    0.061434
  13 H :    0.080832
  14 Cl:    0.213645
  15 Cl:    0.213645

  Mayer bond orders larger than 0.100000
B(  0-N ,  1-C ) :   1.3523 B(  0-N ,  4-C ) :   1.1701 B(  0-N ,  5-C ) :   0.8811
B(  1-C ,  2-N ) :   1.3523 B(  1-C , 13-H ) :   0.9602 B(  2-N ,  3-C ) :   1.1701
B(  2-N ,  6-C ) :   0.8811 B(  3-C ,  4-C ) :   1.5577 B(  3-C , 14-Cl) :   1.1336
B(  4-C , 15-Cl) :   1.1335 B(  5-C ,  7-H ) :   0.9714 B(  5-C ,  8-H ) :   0.9680
B(  5-C ,  9-H ) :   0.9714 B(  6-C , 10-H ) :   0.9714 B(  6-C , 11-H ) :   0.9714
B(  6-C , 12-H ) :   0.9680

Dispersion correction           -0.002508318
FINAL SINGLE POINT ENERGY     -1223.907673931339

DIPOLE MOMENT
-------------
                                X             Y             Z
Electronic contribution:      0.00007      13.30588      -0.00101
Nuclear contribution   :     -0.00009     -16.51055       0.00130
                        -----------------------------------------
Total Dipole Moment    :     -0.00002      -3.20467       0.00029
                        -----------------------------------------
Magnitude (a.u.)       :      3.20467
Magnitude (Debye)      :      8.14562

Dispersion correction in the Hessian             ... Starting D4

VIBRATIONAL FREQUENCIES
-----------------------

Scaling factor for frequencies =  1.000000000  (already applied!)

   0:         0.00 cm**-1
   1:         0.00 cm**-1
   2:         0.00 cm**-1
   3:         0.00 cm**-1
   4:         0.00 cm**-1
   5:         0.00 cm**-1
   6:        77.92 cm**-1
   7:        78.41 cm**-1
   8:       108.91 cm**-1
   9:       161.76 cm**-1
  10:       171.39 cm**-1
  11:       233.43 cm**-1
  12:       268.65 cm**-1
  13:       280.94 cm**-1
  14:       320.68 cm**-1
  15:       444.93 cm**-1
  16:       549.44 cm**-1
  17:       555.46 cm**-1
  18:       639.90 cm**-1
  19:       647.97 cm**-1
  20:       691.76 cm**-1
  21:       871.86 cm**-1
  22:       872.47 cm**-1
  23:      1103.75 cm**-1
  24:      1105.34 cm**-1
  25:      1138.16 cm**-1
  26:      1139.45 cm**-1
  27:      1144.51 cm**-1
  28:      1204.96 cm**-1
  29:      1230.09 cm**-1
  30:      1408.45 cm**-1
  31:      1428.53 cm**-1
  32:      1434.28 cm**-1
  33:      1438.10 cm**-1
  34:      1439.61 cm**-1
  35:      1440.29 cm**-1
  36:      1466.71 cm**-1
  37:      1495.69 cm**-1
  38:      1525.71 cm**-1
  39:      1659.01 cm**-1
  40:      1679.77 cm**-1
  41:      3103.89 cm**-1
  42:      3103.99 cm**-1
  43:      3226.12 cm**-1
  44:      3226.13 cm**-1
  45:      3238.32 cm**-1
  46:      3238.37 cm**-1
  47:      3298.69 cm**-1

IR SPECTRUM
-----------

 Mode   freq       eps      Int      T**2         TX        TY        TZ
       cm**-1   L/(mol*cm) km/mol    a.u.
----------------------------------------------------------------------------
  6:     77.92   0.000099    0.50  0.000395  (-0.000003 -0.000112  0.019876)
  7:     78.41   0.000000    0.00  0.000000  (-0.000031 -0.000012  0.000073)
  8:    108.91   0.000000    0.00  0.000000  (-0.000005 -0.000000  0.000004)
  9:    161.76   0.001142    5.77  0.002204  (-0.000000 -0.000032  0.046946)
 10:    171.39   0.000327    1.65  0.000596  ( 0.000000  0.024405  0.000033)
 11:    233.43   0.000004    0.02  0.000005  (-0.002319 -0.000001  0.000002)
 12:    268.65   0.000870    4.40  0.001010  (-0.000000  0.031784  0.000010)
 13:    280.94   0.000215    1.09  0.000239  (-0.000002 -0.000004 -0.015459)
 14:    320.68   0.000000    0.00  0.000000  ( 0.000009 -0.000001 -0.000000)
 15:    444.93   0.002472   12.49  0.001734  (-0.041642  0.000000  0.000000)
 16:    549.44   0.003071   15.52  0.001744  ( 0.000000  0.041761  0.000000)
 17:    555.46   0.000014    0.07  0.000008  ( 0.002764 -0.000001 -0.000002)
 18:    639.90   0.005152   26.04  0.002513  ( 0.000001  0.000001 -0.050127)
 19:    647.97   0.000024    0.12  0.000012  (-0.000000  0.003425  0.000182)
 20:    691.76   0.000000    0.00  0.000000  (-0.000013  0.000001  0.000000)
 21:    871.86   0.002652   13.40  0.000949  (-0.000022  0.000009  0.030807)
 22:    872.47   0.000102    0.52  0.000037  ( 0.006053 -0.000000  0.000109)
 23:   1103.75   0.002822   14.26  0.000798  (-0.028246 -0.000002 -0.000004)
 24:   1105.34   0.000882    4.46  0.000249  (-0.000003  0.015778 -0.000029)
 25:   1138.16   0.003706   18.73  0.001016  ( 0.000000  0.031878  0.000025)
 26:   1139.45   0.000000    0.00  0.000000  ( 0.000032 -0.000042 -0.000001)
 27:   1144.51   0.000305    1.54  0.000083  ( 0.000005 -0.000013  0.009116)
 28:   1204.96   0.028586  144.46  0.007403  (-0.086043  0.000001  0.000000)
 29:   1230.09   0.004142   20.93  0.001051  ( 0.032416 -0.000000  0.000000)
 30:   1408.45   0.000523    2.64  0.000116  (-0.000000  0.010761  0.000026)
 31:   1428.53   0.001256    6.35  0.000274  (-0.016562  0.000001  0.000016)
 32:   1434.28   0.002973   15.02  0.000647  ( 0.025433  0.000001 -0.000078)
 33:   1438.10   0.003644   18.41  0.000791  (-0.000004  0.028027 -0.002282)
 34:   1439.61   0.000001    0.01  0.000000  (-0.000450 -0.000166  0.000096)
 35:   1440.29   0.011864   59.96  0.002571  (-0.000039 -0.001235 -0.050686)
 36:   1466.71   0.016894   85.38  0.003595  (-0.000000 -0.059954 -0.000002)
 37:   1495.69   0.001577    7.97  0.000329  (-0.018137  0.000001  0.000001)
 38:   1525.71   0.000035    0.18  0.000007  ( 0.000001  0.002673 -0.000018)
 39:   1659.01   0.033093  167.24  0.006225  (-0.078897  0.000001 -0.000001)
 40:   1679.77   0.018940   95.72  0.003519  (-0.000002 -0.059318  0.000013)
 41:   3103.89   0.001677    8.48  0.000169  ( 0.012985 -0.000024  0.000001)
 42:   3103.99   0.000322    1.63  0.000032  ( 0.000054  0.005688  0.000008)
 43:   3226.12   0.000000    0.00  0.000000  (-0.000001  0.000000  0.000079)
 44:   3226.13   0.000090    0.46  0.000009  ( 0.000000 -0.000003  0.002959)
 45:   3238.32   0.000380    1.92  0.000037  (-0.000023 -0.006049  0.000007)
 46:   3238.37   0.000022    0.11  0.000002  ( 0.001465 -0.000095  0.000001)
 47:   3298.69   0.016562   83.70  0.001567  (-0.000000 -0.039583  0.000006)

--------------------------
THERMOCHEMISTRY AT 298.15K
--------------------------

Temperature         ... 298.15 K
Pressure            ... 1.00 atm
Total Mass          ... 166.03 AMU

Throughout the following assumptions are being made:
  (1) The electronic state is orbitally nondegenerate
  (2) There are no thermally accessible electronically excited states
  (3) Hindered rotations indicated by low frequency modes are not
      treated as such but are treated as vibrations and this may
      cause some error
  (4) All equations used are the standard statistical mechanics
      equations for an ideal gas
  (5) All vibrations are strictly harmonic

freq.      77.92  E(vib)   ...       0.49
freq.      78.41  E(vib)   ...       0.49
freq.     108.91  E(vib)   ...       0.45
freq.     161.76  E(vib)   ...       0.39
freq.     171.39  E(vib)   ...       0.38
freq.     233.43  E(vib)   ...       0.32
freq.     268.65  E(vib)   ...       0.29
freq.     280.94  E(vib)   ...       0.28
freq.     320.68  E(vib)   ...       0.25
freq.     444.93  E(vib)   ...       0.17
freq.     549.44  E(vib)   ...       0.12
freq.     555.46  E(vib)   ...       0.12
freq.     639.90  E(vib)   ...       0.09
freq.     647.97  E(vib)   ...       0.08
freq.     691.76  E(vib)   ...       0.07
freq.     871.86  E(vib)   ...       0.04
freq.     872.47  E(vib)   ...       0.04
freq.    1103.75  E(vib)   ...       0.02
freq.    1105.34  E(vib)   ...       0.02
freq.    1138.16  E(vib)   ...       0.01
freq.    1139.45  E(vib)   ...       0.01
freq.    1144.51  E(vib)   ...       0.01
freq.    1204.96  E(vib)   ...       0.01
freq.    1230.09  E(vib)   ...       0.01
freq.    1408.45  E(vib)   ...       0.00
freq.    1428.53  E(vib)   ...       0.00
freq.    1434.28  E(vib)   ...       0.00
freq.    1438.10  E(vib)   ...       0.00
freq.    1439.61  E(vib)   ...       0.00
freq.    1440.29  E(vib)   ...       0.00
freq.    1466.71  E(vib)   ...       0.00
freq.    1495.69  E(vib)   ...       0.00
freq.    1525.71  E(vib)   ...       0.00
freq.    1659.01  E(vib)   ...       0.00
freq.    1679.77  E(vib)   ...       0.00
freq.    3103.89  E(vib)   ...       0.00
freq.    3103.99  E(vib)   ...       0.00
freq.    3226.12  E(vib)   ...       0.00
freq.    3226.13  E(vib)   ...       0.00
freq.    3238.32  E(vib)   ...       0.00
freq.    3238.37  E(vib)   ...       0.00
freq.    3298.69  E(vib)   ...       0.00

------------
INNER ENERGY
------------

The inner energy is: U= E(el) + E(ZPE) + E(vib) + E(rot) + E(trans)
    E(el)   - is the total energy from the electronic structure calculation
              = E(kin-el) + E(nuc-el) + E(el-el) + E(nuc-nuc)
    E(ZPE)  - the the zero temperature vibrational energy from the frequency calculation
    E(vib)  - the the finite temperature correction to E(ZPE) due to population
              of excited vibrational states
    E(rot)  - is the rotational thermal energy
    E(trans)- is the translational thermal energy

Summary of contributions to the inner energy U:
Electronic energy                ...  -1223.90767393 Eh
Zero point energy                ...      0.12277908 Eh      77.04 kcal/mol
Thermal vibrational correction   ...      0.00667123 Eh       4.19 kcal/mol
Thermal rotational correction    ...      0.00141627 Eh       0.89 kcal/mol
Thermal translational correction ...      0.00141627 Eh       0.89 kcal/mol
-----------------------------------------------------------------------
Total thermal energy                  -1223.77539108 Eh

Summary of corrections to the electronic energy:
(perhaps to be used in another calculation)
Total thermal correction                  0.00950377 Eh       5.96 kcal/mol
Non-thermal (ZPE) correction              0.12277908 Eh      77.04 kcal/mol
-----------------------------------------------------------------------
Total correction                          0.13228285 Eh      83.01 kcal/mol

--------
ENTHALPY
--------

The enthalpy is H = U + kB*T
                kB is Boltzmann's constant
Total free energy                 ...  -1223.77539108 Eh
Thermal Enthalpy correction       ...      0.00094421 Eh       0.59 kcal/mol
-----------------------------------------------------------------------
Total Enthalpy                    ...  -1223.77444687 Eh

Note: Only C1 symmetry has been detected, increase convergence thresholds
      if your molecule has a higher symmetry. Symmetry factor of 1.0 is
      used for the rotational entropy correction.

Note: Rotational entropy computed according to Herzberg
Infrared and Raman Spectra, Chapter V,1, Van Nostrand Reinhold, 1945
Point Group:  C1, Symmetry Number:   1
Rotational constants in cm-1:     0.051082     0.036418     0.021437

Vibrational entropy computed according to the QRRHO of S. Grimme
Chem.Eur.J. 2012 18 9955

-------
ENTROPY
-------

The entropy contributions are T*S = T*(S(el)+S(vib)+S(rot)+S(trans))
     S(el)   - electronic entropy
     S(vib)  - vibrational entropy
     S(rot)  - rotational entropy
     S(trans)- translational entropy
The entropies will be listed as multiplied by the temperature to get
units of energy

Electronic entropy                ...      0.00000000 Eh      0.00 kcal/mol
Vibrational entropy               ...      0.01175465 Eh      7.38 kcal/mol
Rotational entropy                ...      0.01429291 Eh      8.97 kcal/mol
Translational entropy             ...      0.01958930 Eh     12.29 kcal/mol
-----------------------------------------------------------------------
Final entropy term                ...      0.04563686 Eh     28.64 kcal/mol

In case the symmetry of your molecule has not been determined correctly
or in case you have a reason to use a different symmetry number we print
out the resulting rotational entropy values for sn=1,12 :
 --------------------------------------------------------
|  sn= 1 | S(rot)=       0.01429291 Eh      8.97 kcal/mol|
|  sn= 2 | S(rot)=       0.01363845 Eh      8.56 kcal/mol|
|  sn= 3 | S(rot)=       0.01325562 Eh      8.32 kcal/mol|
|  sn= 4 | S(rot)=       0.01298399 Eh      8.15 kcal/mol|
|  sn= 5 | S(rot)=       0.01277331 Eh      8.02 kcal/mol|
|  sn= 6 | S(rot)=       0.01260116 Eh      7.91 kcal/mol|
|  sn= 7 | S(rot)=       0.01245562 Eh      7.82 kcal/mol|
|  sn= 8 | S(rot)=       0.01232954 Eh      7.74 kcal/mol|
|  sn= 9 | S(rot)=       0.01221833 Eh      7.67 kcal/mol|
|  sn=10 | S(rot)=       0.01211885 Eh      7.60 kcal/mol|
|  sn=11 | S(rot)=       0.01202886 Eh      7.55 kcal/mol|
|  sn=12 | S(rot)=       0.01194671 Eh      7.50 kcal/mol|
 --------------------------------------------------------

-------------------
GIBBS FREE ENERGY
-------------------

The Gibbs free energy is G = H - T*S

                             ****ORCA TERMINATED NORMALLY****
TOTAL RUN TIME: 0 days 0 hours 23 minutes 10 seconds 758 msec
