                         Program Version 5.0.4 -  RELEASE  -
|  1> # ORCA 5.0.4 - /users/bwb16179/postgrad/2024_03/DFT_Crest_Conformers/Opt/deprot/4_deprot_aq_2.inp # write input file
|  2> # Basic Mode
|  3> #
|  4> ! Opt Freq wB97X Def2-SVP D4 SlowConv TightSCF Defgrid2 Def2/J RIJCOSX CPCM(Water)
|  5>
|  6>
|  7>
|  8> %maxcore 4500
|  9>
| 10> %geom
| 11> Maxiter 150
| 12> END
| 13>
| 14> * xyzfile 0 1 4_deprot_aq_2.xyz
| 15>
| 16>                          ****END OF INPUT****
 Total Charge           Charge          ....    0
 Multiplicity           Mult            ....    1
 Number of Electrons    NEL             ....   84
Dispersion correction           -0.004148853
FINAL SINGLE POINT ENERGY      -461.628584334850
Dispersion correction            ... Starting D4
Dispersion correction           -0.004118619
FINAL SINGLE POINT ENERGY      -461.632061414982
Dispersion correction            ... Starting D4
Dispersion correction           -0.004115131
FINAL SINGLE POINT ENERGY      -461.632288708710
Dispersion correction            ... Starting D4
Dispersion correction           -0.004113854
FINAL SINGLE POINT ENERGY      -461.632345620351
Dispersion correction            ... Starting D4
Dispersion correction           -0.004114016
FINAL SINGLE POINT ENERGY      -461.632350762518
Dispersion correction            ... Starting D4
                    ***********************HURRAY********************

CARTESIAN COORDINATES (ANGSTROEM)
---------------------------------
  N     -1.003541   -0.000554   -0.014693
  C      0.158394    0.000589    0.688617
  N      1.103725   -0.002865   -0.287533
  C      0.551105   -0.006018   -1.556856
  C     -0.794075   -0.004840   -1.385110
  C     -2.328312    0.001908    0.612027
  C      2.550524   -0.001960   -0.031083
  C     -3.097924    1.269760    0.258485
  H     -2.114873    0.003661    1.691458
  C     -3.100230   -1.265808    0.263057
  H      3.021887   -0.013103   -1.027044
  C      2.969184   -1.262297    0.716315
  C      2.972344    1.272903    0.689599
  H      1.156176   -0.008845   -2.462558
  H     -1.602700   -0.006726   -2.114641
  H     -3.331799   -1.307628   -0.813692
  H     -4.052272   -1.292101    0.814096
  H     -2.519552   -2.162072    0.529460
  H     -4.050269    1.299350    0.808839
  H     -3.328704    1.308461   -0.818557
  H     -2.515950    2.165917    0.522396
  H      2.680166    2.164119    0.113511
  H      4.064588    1.289870    0.823856
  H      2.497336    1.330065    1.680944
  H      2.495046   -1.296644    1.709059
  H      4.061534   -1.279627    0.849590
  H      2.673486   -2.164557    0.159542

 Multiplicity           Mult            ....    1
 Number of Electrons    NEL             ....   84
 Basis Dimension        Dim             ....  234

ORBITAL ENERGIES
----------------

  NO   OCC          E(Eh)            E(eV)
   0   2.0000     -14.447007      -393.1230
   1   2.0000     -14.445761      -393.0891
   2   2.0000     -10.309201      -280.5276
   3   2.0000     -10.308167      -280.4995
   4   2.0000     -10.294439      -280.1259
   5   2.0000     -10.292851      -280.0827
   6   2.0000     -10.275326      -279.6058
   7   2.0000     -10.262634      -279.2605
   8   2.0000     -10.262628      -279.2603
   9   2.0000     -10.260340      -279.1980
  10   2.0000     -10.260300      -279.1970
  11   2.0000      -1.146919       -31.2092
  12   2.0000      -1.039633       -28.2899
  13   2.0000      -0.934401       -25.4263
  14   2.0000      -0.883669       -24.0459
  15   2.0000      -0.861192       -23.4342
  16   2.0000      -0.807869       -21.9832
  17   2.0000      -0.805733       -21.9251
  18   2.0000      -0.768051       -20.8997
  19   2.0000      -0.733195       -19.9513
  20   2.0000      -0.681704       -18.5501
  21   2.0000      -0.659225       -17.9384
  22   2.0000      -0.622299       -16.9336
  23   2.0000      -0.576041       -15.6749
  24   2.0000      -0.575203       -15.6521
  25   2.0000      -0.565819       -15.3967
  26   2.0000      -0.554839       -15.0979
  27   2.0000      -0.533997       -14.5308
  28   2.0000      -0.531580       -14.4650
  29   2.0000      -0.528682       -14.3862
  30   2.0000      -0.498591       -13.5674
  31   2.0000      -0.490146       -13.3375
  32   2.0000      -0.481627       -13.1057
  33   2.0000      -0.480133       -13.0651
  34   2.0000      -0.467332       -12.7168
  35   2.0000      -0.455400       -12.3921
  36   2.0000      -0.445576       -12.1247
  37   2.0000      -0.439274       -11.9533
  38   2.0000      -0.435833       -11.8596
  39   2.0000      -0.370822       -10.0906
  40   2.0000      -0.323559        -8.8045
  41   2.0000      -0.322582        -8.7779
  42   0.0000       0.125845         3.4244
  43   0.0000       0.128724         3.5028
  44   0.0000       0.150924         4.1069
  45   0.0000       0.153772         4.1843
  46   0.0000       0.179506         4.8846

MULLIKEN ATOMIC CHARGES
-----------------------
   0 N :   -0.209265
   1 C :   -0.203585
   2 N :   -0.225890
   3 C :    0.016939
   4 C :    0.008594
   5 C :   -0.002578
   6 C :    0.002501
   7 C :   -0.013583
   8 H :    0.027527
   9 C :   -0.013748
  10 H :    0.041713
  11 C :   -0.007002
  12 C :   -0.006705
  13 H :    0.064254
  14 H :    0.066851
  15 H :    0.035035
  16 H :    0.046248
  17 H :    0.039897
  18 H :    0.046229
  19 H :    0.035008
  20 H :    0.039870
  21 H :    0.036394
  22 H :    0.041578
  23 H :    0.027867
  24 H :    0.027903
  25 H :    0.041552
  26 H :    0.036394
Sum of atomic charges:    0.0000000

LOEWDIN ATOMIC CHARGES
----------------------
   0 N :    0.035374
   1 C :   -0.316773
   2 N :    0.030609
   3 C :   -0.034323
   4 C :   -0.040792
   5 C :    0.027378
   6 C :    0.032767
   7 C :   -0.061619
   8 H :    0.027907
   9 C :   -0.061626
  10 H :    0.032955
  11 C :   -0.060045
  12 C :   -0.060088
  13 H :    0.041114
  14 H :    0.039793
  15 H :    0.028757
  16 H :    0.036330
  17 H :    0.030679
  18 H :    0.036327
  19 H :    0.028755
  20 H :    0.030670
  21 H :    0.029584
  22 H :    0.033573
  23 H :    0.024812
  24 H :    0.024755
  25 H :    0.033549
  26 H :    0.029578

  Mayer bond orders larger than 0.100000
B(  0-N ,  1-C ) :   1.2481 B(  0-N ,  4-C ) :   1.1239 B(  0-N ,  5-C ) :   0.9094
B(  1-C ,  2-N ) :   1.2458 B(  2-N ,  3-C ) :   1.1354 B(  2-N ,  6-C ) :   0.8949
B(  3-C ,  4-C ) :   1.6200 B(  3-C , 13-H ) :   0.9901 B(  4-C , 14-H ) :   0.9873
B(  5-C ,  7-C ) :   1.0710 B(  5-C ,  8-H ) :   0.9328 B(  5-C ,  9-C ) :   1.0709
B(  6-C , 10-H ) :   0.9445 B(  6-C , 11-C ) :   1.0727 B(  6-C , 12-C ) :   1.0729
B(  7-C , 18-H ) :   0.9718 B(  7-C , 19-H ) :   0.9644 B(  7-C , 20-H ) :   0.9684
B(  9-C , 15-H ) :   0.9644 B(  9-C , 16-H ) :   0.9717 B(  9-C , 17-H ) :   0.9684
B( 11-C , 24-H ) :   0.9641 B( 11-C , 25-H ) :   0.9714 B( 11-C , 26-H ) :   0.9687
B( 12-C , 21-H ) :   0.9686 B( 12-C , 22-H ) :   0.9715 B( 12-C , 23-H ) :   0.9641

Dispersion correction           -0.004114166
FINAL SINGLE POINT ENERGY      -461.632352678184

DIPOLE MOMENT
-------------
                                X             Y             Z
Electronic contribution:      0.52981      -0.02834      -3.53638
Nuclear contribution   :     -0.72314       0.02497       2.18226
                        -----------------------------------------
Total Dipole Moment    :     -0.19333      -0.00337      -1.35413
                        -----------------------------------------
Magnitude (a.u.)       :      1.36786
Magnitude (Debye)      :      3.47683

Dispersion correction in the Hessian             ... Starting D4

VIBRATIONAL FREQUENCIES
-----------------------

Scaling factor for frequencies =  1.000000000  (already applied!)

   0:         0.00 cm**-1
   1:         0.00 cm**-1
   2:         0.00 cm**-1
   3:         0.00 cm**-1
   4:         0.00 cm**-1
   5:         0.00 cm**-1
   6:       -22.99 cm**-1 ***imaginary mode***
   7:        50.93 cm**-1
   8:       109.45 cm**-1
   9:       151.48 cm**-1
  10:       170.29 cm**-1
  11:       238.50 cm**-1
  12:       243.31 cm**-1
  13:       247.36 cm**-1
  14:       275.83 cm**-1
  15:       294.50 cm**-1
  16:       335.83 cm**-1
  17:       351.82 cm**-1
  18:       401.58 cm**-1
  19:       452.56 cm**-1
  20:       496.04 cm**-1
  21:       510.68 cm**-1
  22:       638.47 cm**-1
  23:       676.69 cm**-1
  24:       681.88 cm**-1
  25:       704.92 cm**-1
  26:       752.34 cm**-1
  27:       885.95 cm**-1
  28:       910.98 cm**-1
  29:       916.84 cm**-1
  30:       922.47 cm**-1
  31:       937.21 cm**-1
  32:       957.93 cm**-1
  33:       960.39 cm**-1
  34:      1015.54 cm**-1
  35:      1027.22 cm**-1
  36:      1082.61 cm**-1
  37:      1097.29 cm**-1
  38:      1126.99 cm**-1
  39:      1166.44 cm**-1
  40:      1170.12 cm**-1
  41:      1177.07 cm**-1
  42:      1194.52 cm**-1
  43:      1236.61 cm**-1
  44:      1318.80 cm**-1
  45:      1335.23 cm**-1
  46:      1343.04 cm**-1
  47:      1350.81 cm**-1
  48:      1390.94 cm**-1
  49:      1397.60 cm**-1
  50:      1398.24 cm**-1
  51:      1402.27 cm**-1
  52:      1407.36 cm**-1
  53:      1428.01 cm**-1
  54:      1444.73 cm**-1
  55:      1446.94 cm**-1
  56:      1450.14 cm**-1
  57:      1451.87 cm**-1
  58:      1455.08 cm**-1
  59:      1459.39 cm**-1
  60:      1463.53 cm**-1
  61:      1475.79 cm**-1
  62:      1483.61 cm**-1
  63:      1486.52 cm**-1
  64:      1652.01 cm**-1
  65:      3063.10 cm**-1
  66:      3065.58 cm**-1
  67:      3066.34 cm**-1
  68:      3069.05 cm**-1
  69:      3109.76 cm**-1
  70:      3128.67 cm**-1
  71:      3162.94 cm**-1
  72:      3166.69 cm**-1
  73:      3171.60 cm**-1
  74:      3172.71 cm**-1
  75:      3173.92 cm**-1
  76:      3175.10 cm**-1
  77:      3176.71 cm**-1
  78:      3177.43 cm**-1
  79:      3279.71 cm**-1
  80:      3300.47 cm**-1

IR SPECTRUM
-----------

 Mode   freq       eps      Int      T**2         TX        TY        TZ
       cm**-1   L/(mol*cm) km/mol    a.u.
----------------------------------------------------------------------------
  7:     50.93   0.000016    0.08  0.000095  (-0.000002  0.009751 -0.000017)
  8:    109.45   0.002758   13.94  0.007864  ( 0.000039 -0.088676  0.000408)
  9:    151.48   0.000424    2.14  0.000873  ( 0.001638 -0.000555 -0.029504)
 10:    170.29   0.000126    0.64  0.000231  (-0.000007  0.015210 -0.000219)
 11:    238.50   0.000072    0.37  0.000095  (-0.008140  0.004867 -0.002181)
 12:    243.31   0.000455    2.30  0.000583  (-0.023520 -0.001552 -0.005228)
 13:    247.36   0.000005    0.03  0.000006  (-0.000148 -0.002535  0.000014)
 14:    275.83   0.000061    0.31  0.000069  ( 0.008261  0.000363  0.000912)
 15:    294.50   0.000121    0.61  0.000129  ( 0.010602  0.000006  0.004029)
 16:    335.83   0.000810    4.09  0.000753  ( 0.024962 -0.000487 -0.011373)
 17:    351.82   0.000741    3.74  0.000657  ( 0.025617 -0.000364  0.000779)
 18:    401.58   0.004158   21.01  0.003231  (-0.000235 -0.056842  0.000361)
 19:    452.56   0.000012    0.06  0.000008  ( 0.000029  0.002914  0.000075)
 20:    496.04   0.000218    1.10  0.000137  ( 0.011715  0.000042 -0.000207)
 21:    510.68   0.001114    5.63  0.000681  ( 0.022975  0.000053 -0.012363)
 22:    638.47   0.000301    1.52  0.000147  ( 0.010681  0.000002  0.005742)
 23:    676.69   0.001394    7.05  0.000643  (-0.000050 -0.025358  0.000023)
 24:    681.88   0.001132    5.72  0.000518  ( 0.000057 -0.022761  0.000105)
 25:    704.92   0.003017   15.25  0.001336  (-0.036408 -0.000138 -0.003202)
 26:    752.34   0.014186   71.69  0.005884  (-0.000060 -0.076708  0.000231)
 27:    885.95   0.000084    0.43  0.000030  (-0.000042 -0.005454  0.000014)
 28:    910.98   0.000733    3.70  0.000251  ( 0.011104  0.000127 -0.011306)
 29:    916.84   0.001356    6.85  0.000462  (-0.020847  0.001155  0.005064)
 30:    922.47   0.000456    2.30  0.000154  (-0.001618 -0.012297  0.000530)
 31:    937.21   0.000259    1.31  0.000086  ( 0.000011 -0.009286  0.000023)
 32:    957.93   0.000129    0.65  0.000042  (-0.000024 -0.006483  0.000023)
 33:    960.39   0.000152    0.77  0.000049  ( 0.000148  0.007025 -0.000079)
 34:   1015.54   0.003650   18.44  0.001122  ( 0.033441 -0.000037  0.001797)
 35:   1027.22   0.000216    1.09  0.000066  ( 0.003690 -0.000040 -0.007217)
 36:   1082.61   0.000154    0.78  0.000044  (-0.006658 -0.000006 -0.000122)
 37:   1097.29   0.005249   26.53  0.001493  ( 0.005808  0.000068  0.038199)
 38:   1126.99   0.004963   25.08  0.001374  (-0.034065  0.000034  0.014627)
 39:   1166.44   0.001708    8.63  0.000457  (-0.000045  0.021375 -0.000225)
 40:   1170.12   0.002050   10.36  0.000547  ( 0.000059  0.023381 -0.000061)
 41:   1177.07   0.001574    7.95  0.000417  ( 0.012981 -0.000426 -0.015764)
 42:   1194.52   0.000614    3.10  0.000160  ( 0.012642 -0.000082 -0.000728)
 43:   1236.61   0.020406  103.12  0.005149  ( 0.071378 -0.000031 -0.007396)
 44:   1318.80   0.000417    2.11  0.000099  (-0.009447 -0.000090 -0.003057)
 45:   1335.23   0.015691   79.29  0.003667  ( 0.059890 -0.000005 -0.008965)
 46:   1343.04   0.000049    0.25  0.000011  ( 0.000525  0.003324  0.000092)
 47:   1350.81   0.000071    0.36  0.000016  ( 0.000060  0.004047 -0.000029)
 48:   1390.94   0.001950    9.86  0.000438  ( 0.013260 -0.001597  0.016101)
 49:   1397.60   0.004404   22.26  0.000983  ( 0.000643  0.031341  0.000823)
 50:   1398.24   0.001225    6.19  0.000273  ( 0.016527  0.000383 -0.000330)
 51:   1402.27   0.005241   26.49  0.001166  ( 0.000032  0.034152 -0.000128)
 52:   1407.36   0.003590   18.14  0.000796  ( 0.015756 -0.000052  0.023405)
 53:   1428.01   0.000866    4.37  0.000189  (-0.010003 -0.000135  0.009438)
 54:   1444.73   0.000223    1.13  0.000048  ( 0.000225  0.006730  0.001668)
 55:   1446.94   0.008869   44.82  0.001913  (-0.022055 -0.000005 -0.037769)
 56:   1450.14   0.000007    0.03  0.000001  (-0.000109  0.001177 -0.000163)
 57:   1451.87   0.000057    0.29  0.000012  ( 0.000181  0.002093 -0.002814)
 58:   1455.08   0.000213    1.08  0.000046  ( 0.000072  0.006753 -0.000163)
 59:   1459.39   0.004046   20.45  0.000865  ( 0.029329 -0.000167  0.002252)
 60:   1463.53   0.006709   33.91  0.001431  ( 0.029813 -0.000188 -0.023276)
 61:   1475.79   0.002348   11.87  0.000496  ( 0.018908  0.000056 -0.011789)
 62:   1483.61   0.012867   65.03  0.002707  (-0.052011  0.000102  0.001179)
 63:   1486.52   0.006929   35.02  0.001455  (-0.032392 -0.000258 -0.020133)
 64:   1652.01   0.000136    0.68  0.000026  ( 0.000499 -0.000060 -0.005034)
 65:   3063.10   0.004957   25.05  0.000505  (-0.000125  0.022473 -0.000131)
 66:   3065.58   0.002721   13.75  0.000277  ( 0.014407  0.000252  0.008327)
 67:   3066.34   0.005511   27.85  0.000561  ( 0.000130  0.023681 -0.000110)
 68:   3069.05   0.002135   10.79  0.000217  ( 0.010952 -0.000211  0.009854)
 69:   3109.76   0.004461   22.54  0.000448  ( 0.012017 -0.000241 -0.017411)
 70:   3128.67   0.001349    6.82  0.000135  (-0.002619  0.000011  0.011301)
 71:   3162.94   0.001366    6.90  0.000135  (-0.000003  0.011606  0.000180)
 72:   3166.69   0.009933   50.20  0.000979  ( 0.002197 -0.000029  0.031209)
 73:   3171.60   0.003557   17.98  0.000350  (-0.000284  0.018681 -0.000964)
 74:   3172.71   0.006354   32.11  0.000625  (-0.015114 -0.000613 -0.019905)
 75:   3173.92   0.000237    1.20  0.000023  ( 0.001695  0.004508  0.000313)
 76:   3175.10   0.002288   11.56  0.000225  (-0.000013  0.014996  0.000013)
 77:   3176.71   0.008017   40.52  0.000788  ( 0.026116 -0.000041 -0.010271)
 78:   3177.43   0.009217   46.58  0.000905  (-0.026061  0.000464  0.015028)
 79:   3279.71   0.001426    7.21  0.000136  ( 0.011637 -0.000000 -0.000512)
 80:   3300.47   0.000250    1.26  0.000024  ( 0.001538  0.000015  0.004613)

--------------------------
THERMOCHEMISTRY AT 298.15K
--------------------------

Temperature         ... 298.15 K
Pressure            ... 1.00 atm
Total Mass          ... 152.24 AMU

Throughout the following assumptions are being made:
  (1) The electronic state is orbitally nondegenerate
  (2) There are no thermally accessible electronically excited states
  (3) Hindered rotations indicated by low frequency modes are not
      treated as such but are treated as vibrations and this may
      cause some error
  (4) All equations used are the standard statistical mechanics
      equations for an ideal gas
  (5) All vibrations are strictly harmonic

freq.      50.93  E(vib)   ...       0.52
freq.     109.45  E(vib)   ...       0.45
freq.     151.48  E(vib)   ...       0.40
freq.     170.29  E(vib)   ...       0.38
freq.     238.50  E(vib)   ...       0.32
freq.     243.31  E(vib)   ...       0.31
freq.     247.36  E(vib)   ...       0.31
freq.     275.83  E(vib)   ...       0.28
freq.     294.50  E(vib)   ...       0.27
freq.     335.83  E(vib)   ...       0.24
freq.     351.82  E(vib)   ...       0.23
freq.     401.58  E(vib)   ...       0.19
freq.     452.56  E(vib)   ...       0.16
freq.     496.04  E(vib)   ...       0.14
freq.     510.68  E(vib)   ...       0.14
freq.     638.47  E(vib)   ...       0.09
freq.     676.69  E(vib)   ...       0.08
freq.     681.88  E(vib)   ...       0.08
freq.     704.92  E(vib)   ...       0.07
freq.     752.34  E(vib)   ...       0.06
freq.     885.95  E(vib)   ...       0.04
freq.     910.98  E(vib)   ...       0.03
freq.     916.84  E(vib)   ...       0.03
freq.     922.47  E(vib)   ...       0.03
freq.     937.21  E(vib)   ...       0.03
freq.     957.93  E(vib)   ...       0.03
freq.     960.39  E(vib)   ...       0.03
freq.    1015.54  E(vib)   ...       0.02
freq.    1027.22  E(vib)   ...       0.02
freq.    1082.61  E(vib)   ...       0.02
freq.    1097.29  E(vib)   ...       0.02
freq.    1126.99  E(vib)   ...       0.01
freq.    1166.44  E(vib)   ...       0.01
freq.    1170.12  E(vib)   ...       0.01
freq.    1177.07  E(vib)   ...       0.01
freq.    1194.52  E(vib)   ...       0.01
freq.    1236.61  E(vib)   ...       0.01
freq.    1318.80  E(vib)   ...       0.01
freq.    1335.23  E(vib)   ...       0.01
freq.    1343.04  E(vib)   ...       0.01
freq.    1350.81  E(vib)   ...       0.01
freq.    1390.94  E(vib)   ...       0.00
freq.    1397.60  E(vib)   ...       0.00
freq.    1398.24  E(vib)   ...       0.00
freq.    1402.27  E(vib)   ...       0.00
freq.    1407.36  E(vib)   ...       0.00
freq.    1428.01  E(vib)   ...       0.00
freq.    1444.73  E(vib)   ...       0.00
freq.    1446.94  E(vib)   ...       0.00
freq.    1450.14  E(vib)   ...       0.00
freq.    1451.87  E(vib)   ...       0.00
freq.    1455.08  E(vib)   ...       0.00
freq.    1459.39  E(vib)   ...       0.00
freq.    1463.53  E(vib)   ...       0.00
freq.    1475.79  E(vib)   ...       0.00
freq.    1483.61  E(vib)   ...       0.00
freq.    1486.52  E(vib)   ...       0.00
freq.    1652.01  E(vib)   ...       0.00
freq.    3063.10  E(vib)   ...       0.00
freq.    3065.58  E(vib)   ...       0.00
freq.    3066.34  E(vib)   ...       0.00
freq.    3069.05  E(vib)   ...       0.00
freq.    3109.76  E(vib)   ...       0.00
freq.    3128.67  E(vib)   ...       0.00
freq.    3162.94  E(vib)   ...       0.00
freq.    3166.69  E(vib)   ...       0.00
freq.    3171.60  E(vib)   ...       0.00
freq.    3172.71  E(vib)   ...       0.00
freq.    3173.92  E(vib)   ...       0.00
freq.    3175.10  E(vib)   ...       0.00
freq.    3176.71  E(vib)   ...       0.00
freq.    3177.43  E(vib)   ...       0.00
freq.    3279.71  E(vib)   ...       0.00
freq.    3300.47  E(vib)   ...       0.00

------------
INNER ENERGY
------------

The inner energy is: U= E(el) + E(ZPE) + E(vib) + E(rot) + E(trans)
    E(el)   - is the total energy from the electronic structure calculation
              = E(kin-el) + E(nuc-el) + E(el-el) + E(nuc-nuc)
    E(ZPE)  - the the zero temperature vibrational energy from the frequency calculation
    E(vib)  - the the finite temperature correction to E(ZPE) due to population
              of excited vibrational states
    E(rot)  - is the rotational thermal energy
    E(trans)- is the translational thermal energy

Summary of contributions to the inner energy U:
Electronic energy                ...   -461.63235268 Eh
Zero point energy                ...      0.24165056 Eh     151.64 kcal/mol
Thermal vibrational correction   ...      0.00821784 Eh       5.16 kcal/mol
Thermal rotational correction    ...      0.00141627 Eh       0.89 kcal/mol
Thermal translational correction ...      0.00141627 Eh       0.89 kcal/mol
-----------------------------------------------------------------------
Total thermal energy                   -461.37965174 Eh

Summary of corrections to the electronic energy:
(perhaps to be used in another calculation)
Total thermal correction                  0.01105038 Eh       6.93 kcal/mol
Non-thermal (ZPE) correction              0.24165056 Eh     151.64 kcal/mol
-----------------------------------------------------------------------
Total correction                          0.25270094 Eh     158.57 kcal/mol

--------
ENTHALPY
--------

The enthalpy is H = U + kB*T
                kB is Boltzmann's constant
Total free energy                 ...   -461.37965174 Eh
Thermal Enthalpy correction       ...      0.00094421 Eh       0.59 kcal/mol
-----------------------------------------------------------------------
Total Enthalpy                    ...   -461.37870753 Eh

Note: Only C1 symmetry has been detected, increase convergence thresholds
      if your molecule has a higher symmetry. Symmetry factor of 1.0 is
      used for the rotational entropy correction.

Note: Rotational entropy computed according to Herzberg
Infrared and Raman Spectra, Chapter V,1, Van Nostrand Reinhold, 1945
Point Group:  C1, Symmetry Number:   1
Rotational constants in cm-1:     0.079792     0.019225     0.019046

Vibrational entropy computed according to the QRRHO of S. Grimme
Chem.Eur.J. 2012 18 9955

-------
ENTROPY
-------

The entropy contributions are T*S = T*(S(el)+S(vib)+S(rot)+S(trans))
     S(el)   - electronic entropy
     S(vib)  - vibrational entropy
     S(rot)  - rotational entropy
     S(trans)- translational entropy
The entropies will be listed as multiplied by the temperature to get
units of energy

                             ****ORCA TERMINATED NORMALLY****
TOTAL RUN TIME: 0 days 0 hours 56 minutes 35 seconds 46 msec
