                         Program Version 5.0.4 -  RELEASE  -
|  1> # ORCA 5.0.4 - /users/bwb16179/postgrad/2024_03/DFT_Crest_Conformers/Opt/deprot/4_deprot_aq_5.inp # write input file
|  2> # Basic Mode
|  3> #
|  4> ! Opt Freq wB97X Def2-SVP D4 SlowConv TightSCF Defgrid2 Def2/J RIJCOSX CPCM(Water)
|  5>
|  6>
|  7>
|  8> %maxcore 4500
|  9>
| 10> %geom
| 11> Maxiter 150
| 12> END
| 13>
| 14> * xyzfile 0 1 4_deprot_aq_5.xyz
| 15>
| 16>                          ****END OF INPUT****
 Total Charge           Charge          ....    0
 Multiplicity           Mult            ....    1
 Number of Electrons    NEL             ....   84
Dispersion correction           -0.004207915
FINAL SINGLE POINT ENERGY      -461.627077725097
Dispersion correction            ... Starting D4
Dispersion correction           -0.004162294
FINAL SINGLE POINT ENERGY      -461.631108518309
Dispersion correction            ... Starting D4
Dispersion correction           -0.004154427
FINAL SINGLE POINT ENERGY      -461.631505444665
Dispersion correction            ... Starting D4
FINAL SINGLE POINT ENERGY      -461.631658950872
FINAL SINGLE POINT ENERGY      -461.631697658656
FINAL SINGLE POINT ENERGY      -461.631750179958
FINAL SINGLE POINT ENERGY      -461.631770397301
Dispersion correction           -0.004153964
FINAL SINGLE POINT ENERGY      -461.631782573402
Dispersion correction            ... Starting D4
Dispersion correction           -0.004153627
FINAL SINGLE POINT ENERGY      -461.631784197683
Dispersion correction            ... Starting D4
                    ***********************HURRAY********************

CARTESIAN COORDINATES (ANGSTROEM)
---------------------------------
  N     -1.061273    0.079460    0.370285
  C      0.000451   -0.109344   -0.454733
  N      1.060861    0.021452    0.382562
  C      0.677040    0.288651    1.686701
  C     -0.678755    0.322411    1.679465
  C     -2.462272    0.016112   -0.067377
  C      2.462767   -0.057920   -0.049001
  C     -2.746088    1.063487   -1.137206
  H     -3.058300    0.259729    0.826947
  C     -2.822926   -1.393127   -0.521981
  H      3.055413   -0.026227    0.879548
  C      2.830077    1.152070   -0.900179
  C      2.745420   -1.376399   -0.757745
  H      1.394728    0.430653    2.493539
  H     -1.397175    0.496912    2.479248
  H     -3.889229   -1.446586   -0.789641
  H     -2.627371   -2.126017    0.275895
  H     -2.226853   -1.673849   -1.404227
  H     -2.484675    2.070997   -0.779114
  H     -3.814219    1.054751   -1.402658
  H     -2.158967    0.855146   -2.044591
  H      3.814788   -1.447462   -1.007944
  H      2.162868   -1.446901   -1.688777
  H      2.480729   -2.231874   -0.117795
  H      2.233486    1.161591   -1.825942
  H      3.896292    1.120951   -1.171588
  H      2.638564    2.088429   -0.353773

 Multiplicity           Mult            ....    1
 Number of Electrons    NEL             ....   84
 Basis Dimension        Dim             ....  234

ORBITAL ENERGIES
----------------

  NO   OCC          E(Eh)            E(eV)
   0   2.0000     -14.446410      -393.1068
   1   2.0000     -14.446366      -393.1056
   2   2.0000     -10.308979      -280.5216
   3   2.0000     -10.308880      -280.5189
   4   2.0000     -10.293433      -280.0985
   5   2.0000     -10.292848      -280.0826
   6   2.0000     -10.274074      -279.5718
   7   2.0000     -10.260590      -279.2048
   8   2.0000     -10.260492      -279.2022
   9   2.0000     -10.260299      -279.1969
  10   2.0000     -10.260092      -279.1913
  11   2.0000      -1.146633       -31.2015
  12   2.0000      -1.038738       -28.2655
  13   2.0000      -0.934383       -25.4258
  14   2.0000      -0.883884       -24.0517
  15   2.0000      -0.858426       -23.3590
  16   2.0000      -0.805945       -21.9309
  17   2.0000      -0.805341       -21.9144
  18   2.0000      -0.772538       -21.0218
  19   2.0000      -0.721191       -19.6246
  20   2.0000      -0.695304       -18.9202
  21   2.0000      -0.651071       -17.7165
  22   2.0000      -0.623205       -16.9583
  23   2.0000      -0.576337       -15.6829
  24   2.0000      -0.567145       -15.4328
  25   2.0000      -0.566463       -15.4142
  26   2.0000      -0.558895       -15.2083
  27   2.0000      -0.535194       -14.5634
  28   2.0000      -0.532192       -14.4817
  29   2.0000      -0.524913       -14.2836
  30   2.0000      -0.496654       -13.5146
  31   2.0000      -0.488185       -13.2842
  32   2.0000      -0.481852       -13.1119
  33   2.0000      -0.476610       -12.9692
  34   2.0000      -0.469573       -12.7777
  35   2.0000      -0.454642       -12.3714
  36   2.0000      -0.445209       -12.1148
  37   2.0000      -0.440354       -11.9826
  38   2.0000      -0.435451       -11.8492
  39   2.0000      -0.371084       -10.0977
  40   2.0000      -0.322370        -8.7721
  41   2.0000      -0.320503        -8.7213
  42   0.0000       0.126478         3.4417
  43   0.0000       0.128516         3.4971
  44   0.0000       0.150795         4.1033
  45   0.0000       0.157046         4.2734
  46   0.0000       0.177899         4.8409

MULLIKEN ATOMIC CHARGES
-----------------------
   0 N :   -0.221627
   1 C :   -0.192098
   2 N :   -0.221450
   3 C :    0.011401
   4 C :    0.011656
   5 C :    0.002013
   6 C :    0.001259
   7 C :   -0.008135
   8 H :    0.041582
   9 C :   -0.006435
  10 H :    0.041530
  11 C :   -0.004761
  12 C :   -0.008084
  13 H :    0.064810
  14 H :    0.065067
  15 H :    0.041951
  16 H :    0.036656
  17 H :    0.027506
  18 H :    0.036592
  19 H :    0.041867
  20 H :    0.027554
  21 H :    0.041432
  22 H :    0.027773
  23 H :    0.036488
  24 H :    0.027412
  25 H :    0.042049
  26 H :    0.035993
Sum of atomic charges:    0.0000000

LOEWDIN ATOMIC CHARGES
----------------------
   0 N :    0.033754
   1 C :   -0.310965
   2 N :    0.033899
   3 C :   -0.039939
   4 C :   -0.039572
   5 C :    0.032209
   6 C :    0.032104
   7 C :   -0.060055
   8 H :    0.032861
   9 C :   -0.060266
  10 H :    0.032817
  11 C :   -0.060186
  12 C :   -0.059778
  13 H :    0.040936
  14 H :    0.040990
  15 H :    0.033631
  16 H :    0.029569
  17 H :    0.024829
  18 H :    0.029537
  19 H :    0.033636
  20 H :    0.024448
  21 H :    0.033620
  22 H :    0.024296
  23 H :    0.029559
  24 H :    0.025071
  25 H :    0.033606
  26 H :    0.029388

  Mayer bond orders larger than 0.100000
B(  0-N ,  1-C ) :   1.2511 B(  0-N ,  4-C ) :   1.1346 B(  0-N ,  5-C ) :   0.8951
B(  1-C ,  2-N ) :   1.2524 B(  2-N ,  3-C ) :   1.1341 B(  2-N ,  6-C ) :   0.8955
B(  3-C ,  4-C ) :   1.6109 B(  3-C , 13-H ) :   0.9892 B(  4-C , 14-H ) :   0.9891
B(  5-C ,  7-C ) :   1.0723 B(  5-C ,  8-H ) :   0.9446 B(  5-C ,  9-C ) :   1.0726
B(  6-C , 10-H ) :   0.9445 B(  6-C , 11-C ) :   1.0733 B(  6-C , 12-C ) :   1.0716
B(  7-C , 18-H ) :   0.9689 B(  7-C , 19-H ) :   0.9711 B(  7-C , 20-H ) :   0.9639
B(  9-C , 15-H ) :   0.9717 B(  9-C , 16-H ) :   0.9685 B(  9-C , 17-H ) :   0.9640
B( 11-C , 24-H ) :   0.9641 B( 11-C , 25-H ) :   0.9720 B( 11-C , 26-H ) :   0.9683
B( 12-C , 21-H ) :   0.9708 B( 12-C , 22-H ) :   0.9635 B( 12-C , 23-H ) :   0.9691

Dispersion correction           -0.004153493
FINAL SINGLE POINT ENERGY      -461.631783564907

DIPOLE MOMENT
-------------
                                X             Y             Z
Electronic contribution:     -0.01013       1.01583       6.44965
Nuclear contribution   :      0.01064      -0.74853      -5.14035
                        -----------------------------------------
Total Dipole Moment    :      0.00051       0.26729       1.30930
                        -----------------------------------------
Magnitude (a.u.)       :      1.33631
Magnitude (Debye)      :      3.39663

Dispersion correction in the Hessian             ... Starting D4

VIBRATIONAL FREQUENCIES
-----------------------

Scaling factor for frequencies =  1.000000000  (already applied!)

   0:         0.00 cm**-1
   1:         0.00 cm**-1
   2:         0.00 cm**-1
   3:         0.00 cm**-1
   4:         0.00 cm**-1
   5:         0.00 cm**-1
   6:        44.32 cm**-1
   7:        55.98 cm**-1
   8:        88.22 cm**-1
   9:       147.11 cm**-1
  10:       173.25 cm**-1
  11:       243.54 cm**-1
  12:       249.80 cm**-1
  13:       269.95 cm**-1
  14:       283.06 cm**-1
  15:       314.75 cm**-1
  16:       326.61 cm**-1
  17:       344.24 cm**-1
  18:       402.90 cm**-1
  19:       456.89 cm**-1
  20:       486.40 cm**-1
  21:       529.43 cm**-1
  22:       613.93 cm**-1
  23:       673.47 cm**-1
  24:       686.01 cm**-1
  25:       723.15 cm**-1
  26:       754.38 cm**-1
  27:       884.40 cm**-1
  28:       909.53 cm**-1
  29:       919.71 cm**-1
  30:       931.91 cm**-1
  31:       933.11 cm**-1
  32:       961.06 cm**-1
  33:       961.78 cm**-1
  34:      1011.97 cm**-1
  35:      1022.99 cm**-1
  36:      1091.49 cm**-1
  37:      1119.37 cm**-1
  38:      1144.54 cm**-1
  39:      1160.12 cm**-1
  40:      1170.49 cm**-1
  41:      1170.94 cm**-1
  42:      1190.01 cm**-1
  43:      1227.02 cm**-1
  44:      1326.80 cm**-1
  45:      1333.22 cm**-1
  46:      1348.35 cm**-1
  47:      1348.50 cm**-1
  48:      1393.07 cm**-1
  49:      1394.10 cm**-1
  50:      1400.78 cm**-1
  51:      1400.95 cm**-1
  52:      1413.13 cm**-1
  53:      1434.07 cm**-1
  54:      1445.90 cm**-1
  55:      1446.13 cm**-1
  56:      1450.68 cm**-1
  57:      1453.05 cm**-1
  58:      1453.80 cm**-1
  59:      1456.87 cm**-1
  60:      1467.34 cm**-1
  61:      1474.92 cm**-1
  62:      1482.12 cm**-1
  63:      1493.41 cm**-1
  64:      1647.99 cm**-1
  65:      3064.55 cm**-1
  66:      3064.81 cm**-1
  67:      3068.35 cm**-1
  68:      3069.75 cm**-1
  69:      3107.88 cm**-1
  70:      3108.18 cm**-1
  71:      3169.01 cm**-1
  72:      3170.01 cm**-1
  73:      3172.13 cm**-1
  74:      3172.39 cm**-1
  75:      3173.30 cm**-1
  76:      3173.59 cm**-1
  77:      3176.74 cm**-1
  78:      3178.24 cm**-1
  79:      3280.86 cm**-1
  80:      3301.82 cm**-1

IR SPECTRUM
-----------

 Mode   freq       eps      Int      T**2         TX        TY        TZ
       cm**-1   L/(mol*cm) km/mol    a.u.
----------------------------------------------------------------------------
  6:     44.32   0.000008    0.04  0.000060  ( 0.000175  0.007112 -0.003030)
  7:     55.98   0.001770    8.95  0.009870  ( 0.004873  0.097279 -0.019566)
  8:     88.22   0.001444    7.29  0.005106  (-0.000957 -0.070013  0.014260)
  9:    147.11   0.000308    1.56  0.000653  (-0.000073  0.005827  0.024888)
 10:    173.25   0.000002    0.01  0.000003  ( 0.001285 -0.001336 -0.000186)
 11:    243.54   0.000083    0.42  0.000107  ( 0.009749 -0.002909  0.001823)
 12:    249.80   0.000027    0.13  0.000033  (-0.004817  0.003128 -0.000473)
 13:    269.95   0.000644    3.25  0.000745  ( 0.027241 -0.001547 -0.000318)
 14:    283.06   0.000005    0.03  0.000006  (-0.001938  0.000002 -0.001373)
 15:    314.75   0.000381    1.93  0.000378  ( 0.001697  0.000755  0.019352)
 16:    326.61   0.001240    6.26  0.001184  (-0.034163  0.004090  0.000800)
 17:    344.24   0.000584    2.95  0.000529  (-0.021484  0.008092 -0.001391)
 18:    402.90   0.003915   19.79  0.003033  ( 0.006076  0.053804 -0.010037)
 19:    456.89   0.000011    0.06  0.000008  (-0.000246 -0.000995 -0.002557)
 20:    486.40   0.000132    0.67  0.000084  (-0.000262 -0.002061 -0.008952)
 21:    529.43   0.000057    0.29  0.000034  ( 0.005786  0.000296 -0.000221)
 22:    613.93   0.000503    2.54  0.000256  ( 0.000150 -0.002101 -0.015852)
 23:    673.47   0.000006    0.03  0.000003  ( 0.001565  0.000041 -0.000741)
 24:    686.01   0.002302   11.63  0.001047  (-0.002705  0.031781 -0.005459)
 25:    723.15   0.002688   13.58  0.001160  ( 0.033570  0.005655 -0.000919)
 26:    754.38   0.015141   76.52  0.006263  (-0.002483 -0.077742  0.014611)
 27:    884.40   0.000002    0.01  0.000001  ( 0.000043 -0.000005 -0.000813)
 28:    909.53   0.000007    0.03  0.000002  (-0.000781  0.000543  0.001174)
 29:    919.71   0.001401    7.08  0.000475  ( 0.021801  0.000303  0.000185)
 30:    931.91   0.000465    2.35  0.000156  ( 0.002780 -0.012101  0.001188)
 31:    933.11   0.000554    2.80  0.000185  ( 0.000642 -0.013211  0.003230)
 32:    961.06   0.000007    0.04  0.000002  (-0.000258 -0.001236 -0.000881)
 33:    961.78   0.000192    0.97  0.000062  (-0.000133  0.007784 -0.001267)
 34:   1011.97   0.004350   21.98  0.001342  (-0.036616  0.000884 -0.000160)
 35:   1022.99   0.000352    1.78  0.000107  ( 0.000763  0.002355  0.010068)
 36:   1091.49   0.004798   24.25  0.001372  (-0.000146 -0.006593 -0.036444)
 37:   1119.37   0.000633    3.20  0.000177  ( 0.000320 -0.002574 -0.013032)
 38:   1144.54   0.010393   52.52  0.002834  (-0.053219  0.001179 -0.000085)
 39:   1160.12   0.004304   21.75  0.001158  ( 0.033821  0.003628 -0.000831)
 40:   1170.49   0.000273    1.38  0.000073  (-0.003265  0.007873  0.000264)
 41:   1170.94   0.003232   16.33  0.000861  (-0.006919  0.028065 -0.005093)
 42:   1190.01   0.001035    5.23  0.000271  ( 0.000614 -0.002373 -0.016289)
 43:   1227.02   0.008651   43.72  0.002200  (-0.046904  0.000266 -0.000440)
 44:   1326.80   0.014384   72.69  0.003383  ( 0.058163  0.000105 -0.000305)
 45:   1333.22   0.000050    0.25  0.000012  (-0.002733  0.000728  0.001926)
 46:   1348.35   0.000012    0.06  0.000003  (-0.001271 -0.001080  0.000006)
 47:   1348.50   0.000046    0.23  0.000011  (-0.002955 -0.000912  0.001029)
 48:   1393.07   0.000636    3.21  0.000142  (-0.010496  0.000118  0.005683)
 49:   1394.10   0.002134   10.78  0.000478  ( 0.002671  0.003441  0.021418)
 50:   1400.78   0.002057   10.40  0.000458  ( 0.001491  0.021300 -0.001528)
 51:   1400.95   0.007228   36.53  0.001610  ( 0.002496  0.039205 -0.008166)
 52:   1413.13   0.003490   17.64  0.000771  (-0.000496  0.004849  0.027332)
 53:   1434.07   0.006544   33.07  0.001424  (-0.037710 -0.000579  0.001264)
 54:   1445.90   0.000134    0.68  0.000029  ( 0.001513 -0.004761  0.001979)
 55:   1446.13   0.000527    2.66  0.000114  ( 0.003956 -0.002898  0.009470)
 56:   1450.68   0.009209   46.54  0.001981  ( 0.002724 -0.009200 -0.043462)
 57:   1453.05   0.000347    1.75  0.000074  (-0.000727  0.002368 -0.008265)
 58:   1453.80   0.000163    0.82  0.000035  ( 0.004464 -0.003797 -0.000826)
 59:   1456.87   0.006396   32.32  0.001370  (-0.036829  0.002849 -0.002356)
 60:   1467.34   0.000024    0.12  0.000005  (-0.002141  0.000145  0.000677)
 61:   1474.92   0.012732   64.34  0.002694  (-0.051892  0.000062 -0.001043)
 62:   1482.12   0.002983   15.08  0.000628  (-0.024998 -0.001778 -0.000318)
 63:   1493.41   0.004555   23.02  0.000952  (-0.000869 -0.005422 -0.030359)
 64:   1647.99   0.000373    1.89  0.000071  (-0.000003  0.001153  0.008325)
 65:   3064.55   0.005024   25.39  0.000512  (-0.004856 -0.020841  0.007328)
 66:   3064.81   0.004788   24.19  0.000487  (-0.003766 -0.021739  0.000852)
 67:   3068.35   0.002649   13.38  0.000269  (-0.008783  0.006521 -0.012235)
 68:   3069.75   0.003087   15.60  0.000314  ( 0.007705 -0.012579 -0.009808)
 69:   3107.88   0.004360   22.03  0.000438  ( 0.017430 -0.001409  0.011488)
 70:   3108.18   0.004644   23.47  0.000466  ( 0.010013 -0.004328 -0.018635)
 71:   3169.01   0.004585   23.17  0.000451  (-0.003172 -0.014283 -0.015408)
 72:   3170.01   0.004513   22.81  0.000444  ( 0.001086 -0.011569  0.017585)
 73:   3172.13   0.004292   21.69  0.000422  (-0.006594 -0.014191 -0.013319)
 74:   3172.39   0.002093   10.58  0.000206  ( 0.005463 -0.011272  0.007000)
 75:   3173.30   0.002110   10.66  0.000208  (-0.012320 -0.003818 -0.006416)
 76:   3173.59   0.006033   30.49  0.000593  ( 0.018569  0.005191 -0.014881)
 77:   3176.74   0.010465   52.89  0.001028  (-0.030295  0.005677  0.008833)
 78:   3178.24   0.006869   34.71  0.000674  ( 0.022374 -0.002996  0.012839)
 79:   3280.86   0.001492    7.54  0.000142  (-0.011912  0.000150  0.000046)
 80:   3301.82   0.000180    0.91  0.000017  ( 0.000120 -0.000979 -0.004003)

--------------------------
THERMOCHEMISTRY AT 298.15K
--------------------------

Temperature         ... 298.15 K
Pressure            ... 1.00 atm
Total Mass          ... 152.24 AMU

Throughout the following assumptions are being made:
  (1) The electronic state is orbitally nondegenerate
  (2) There are no thermally accessible electronically excited states
  (3) Hindered rotations indicated by low frequency modes are not
      treated as such but are treated as vibrations and this may
      cause some error
  (4) All equations used are the standard statistical mechanics
      equations for an ideal gas
  (5) All vibrations are strictly harmonic

freq.      44.32  E(vib)   ...       0.53
freq.      55.98  E(vib)   ...       0.52
freq.      88.22  E(vib)   ...       0.48
freq.     147.11  E(vib)   ...       0.41
freq.     173.25  E(vib)   ...       0.38
freq.     243.54  E(vib)   ...       0.31
freq.     249.80  E(vib)   ...       0.31
freq.     269.95  E(vib)   ...       0.29
freq.     283.06  E(vib)   ...       0.28
freq.     314.75  E(vib)   ...       0.25
freq.     326.61  E(vib)   ...       0.24
freq.     344.24  E(vib)   ...       0.23
freq.     402.90  E(vib)   ...       0.19
freq.     456.89  E(vib)   ...       0.16
freq.     486.40  E(vib)   ...       0.15
freq.     529.43  E(vib)   ...       0.13
freq.     613.93  E(vib)   ...       0.10
freq.     673.47  E(vib)   ...       0.08
freq.     686.01  E(vib)   ...       0.07
freq.     723.15  E(vib)   ...       0.07
freq.     754.38  E(vib)   ...       0.06
freq.     884.40  E(vib)   ...       0.04
freq.     909.53  E(vib)   ...       0.03
freq.     919.71  E(vib)   ...       0.03
freq.     931.91  E(vib)   ...       0.03
freq.     933.11  E(vib)   ...       0.03
freq.     961.06  E(vib)   ...       0.03
freq.     961.78  E(vib)   ...       0.03
freq.    1011.97  E(vib)   ...       0.02
freq.    1022.99  E(vib)   ...       0.02
freq.    1091.49  E(vib)   ...       0.02
freq.    1119.37  E(vib)   ...       0.01
freq.    1144.54  E(vib)   ...       0.01
freq.    1160.12  E(vib)   ...       0.01
freq.    1170.49  E(vib)   ...       0.01
freq.    1170.94  E(vib)   ...       0.01
freq.    1190.01  E(vib)   ...       0.01
freq.    1227.02  E(vib)   ...       0.01
freq.    1326.80  E(vib)   ...       0.01
freq.    1333.22  E(vib)   ...       0.01
freq.    1348.35  E(vib)   ...       0.01
freq.    1348.50  E(vib)   ...       0.01
freq.    1393.07  E(vib)   ...       0.00
freq.    1394.10  E(vib)   ...       0.00
freq.    1400.78  E(vib)   ...       0.00
freq.    1400.95  E(vib)   ...       0.00
freq.    1413.13  E(vib)   ...       0.00
freq.    1434.07  E(vib)   ...       0.00
freq.    1445.90  E(vib)   ...       0.00
freq.    1446.13  E(vib)   ...       0.00
freq.    1450.68  E(vib)   ...       0.00
freq.    1453.05  E(vib)   ...       0.00
freq.    1453.80  E(vib)   ...       0.00
freq.    1456.87  E(vib)   ...       0.00
freq.    1467.34  E(vib)   ...       0.00
freq.    1474.92  E(vib)   ...       0.00
freq.    1482.12  E(vib)   ...       0.00
freq.    1493.41  E(vib)   ...       0.00
freq.    1647.99  E(vib)   ...       0.00
freq.    3064.55  E(vib)   ...       0.00
freq.    3064.81  E(vib)   ...       0.00
freq.    3068.35  E(vib)   ...       0.00
freq.    3069.75  E(vib)   ...       0.00
freq.    3107.88  E(vib)   ...       0.00
freq.    3108.18  E(vib)   ...       0.00
freq.    3169.01  E(vib)   ...       0.00
freq.    3170.01  E(vib)   ...       0.00
freq.    3172.13  E(vib)   ...       0.00
freq.    3172.39  E(vib)   ...       0.00
freq.    3173.30  E(vib)   ...       0.00
freq.    3173.59  E(vib)   ...       0.00
freq.    3176.74  E(vib)   ...       0.00
freq.    3178.24  E(vib)   ...       0.00
freq.    3280.86  E(vib)   ...       0.00
freq.    3301.82  E(vib)   ...       0.00

------------
INNER ENERGY
------------

The inner energy is: U= E(el) + E(ZPE) + E(vib) + E(rot) + E(trans)
    E(el)   - is the total energy from the electronic structure calculation
              = E(kin-el) + E(nuc-el) + E(el-el) + E(nuc-nuc)
    E(ZPE)  - the the zero temperature vibrational energy from the frequency calculation
    E(vib)  - the the finite temperature correction to E(ZPE) due to population
              of excited vibrational states
    E(rot)  - is the rotational thermal energy
    E(trans)- is the translational thermal energy

Summary of contributions to the inner energy U:
Electronic energy                ...   -461.63178356 Eh
Zero point energy                ...      0.24192911 Eh     151.81 kcal/mol
Thermal vibrational correction   ...      0.00902422 Eh       5.66 kcal/mol
Thermal rotational correction    ...      0.00141627 Eh       0.89 kcal/mol
Thermal translational correction ...      0.00141627 Eh       0.89 kcal/mol
-----------------------------------------------------------------------
Total thermal energy                   -461.37799769 Eh

Summary of corrections to the electronic energy:
(perhaps to be used in another calculation)
Total thermal correction                  0.01185676 Eh       7.44 kcal/mol
Non-thermal (ZPE) correction              0.24192911 Eh     151.81 kcal/mol
-----------------------------------------------------------------------
Total correction                          0.25378588 Eh     159.25 kcal/mol

--------
ENTHALPY
--------

The enthalpy is H = U + kB*T
                kB is Boltzmann's constant
Total free energy                 ...   -461.37799769 Eh
Thermal Enthalpy correction       ...      0.00094421 Eh       0.59 kcal/mol
-----------------------------------------------------------------------
Total Enthalpy                    ...   -461.37705348 Eh

Note: Only C1 symmetry has been detected, increase convergence thresholds
      if your molecule has a higher symmetry. Symmetry factor of 1.0 is
      used for the rotational entropy correction.

Note: Rotational entropy computed according to Herzberg
Infrared and Raman Spectra, Chapter V,1, Van Nostrand Reinhold, 1945
Point Group:  C1, Symmetry Number:   1
Rotational constants in cm-1:     0.066693     0.021118     0.020211

Vibrational entropy computed according to the QRRHO of S. Grimme
Chem.Eur.J. 2012 18 9955

-------
ENTROPY
-------

The entropy contributions are T*S = T*(S(el)+S(vib)+S(rot)+S(trans))
     S(el)   - electronic entropy
     S(vib)  - vibrational entropy
     S(rot)  - rotational entropy
     S(trans)- translational entropy
The entropies will be listed as multiplied by the temperature to get
units of energy

                             ****ORCA TERMINATED NORMALLY****
TOTAL RUN TIME: 0 days 1 hours 20 minutes 22 seconds 890 msec
