                         Program Version 5.0.4 -  RELEASE  -
|  1> # ORCA 5.0.4 - /users/bwb16179/postgrad/2024_03/DFT_Crest_Conformers/Opt/deprot/4_deprot_aq_4.inp # write input file
|  2> # Basic Mode
|  3> #
|  4> ! Opt Freq wB97X Def2-SVP D4 SlowConv TightSCF Defgrid2 Def2/J RIJCOSX CPCM(Water)
|  5>
|  6>
|  7>
|  8> %maxcore 4500
|  9>
| 10> %geom
| 11> Maxiter 150
| 12> END
| 13>
| 14> * xyzfile 0 1 4_deprot_aq_4.xyz
| 15>
| 16>                          ****END OF INPUT****
 Total Charge           Charge          ....    0
 Multiplicity           Mult            ....    1
 Number of Electrons    NEL             ....   84
Dispersion correction           -0.004211129
FINAL SINGLE POINT ENERGY      -461.627308103368
Dispersion correction            ... Starting D4
Dispersion correction           -0.004160260
FINAL SINGLE POINT ENERGY      -461.631509269601
Dispersion correction            ... Starting D4
Dispersion correction           -0.004153252
FINAL SINGLE POINT ENERGY      -461.631814697860
Dispersion correction            ... Starting D4
Dispersion correction           -0.004151812
FINAL SINGLE POINT ENERGY      -461.631873486694
Dispersion correction            ... Starting D4
Dispersion correction           -0.004152341
FINAL SINGLE POINT ENERGY      -461.631881072261
Dispersion correction            ... Starting D4
                    ***********************HURRAY********************

CARTESIAN COORDINATES (ANGSTROEM)
---------------------------------
  N     -1.061407    0.004446    0.374531
  C     -0.000001   -0.010250   -0.471693
  N      1.061397    0.004735    0.374537
  C      0.678060    0.029476    1.705330
  C     -0.678085    0.029150    1.705329
  C     -2.463486   -0.003692   -0.064318
  C      2.463479   -0.003284   -0.064301
  C     -2.789986    1.255060   -0.858330
  H     -3.057705    0.003449    0.863634
  C     -2.783307   -1.278753   -0.834736
  H      3.057693    0.004626    0.863649
  C      2.789677    1.255102   -0.859010
  C      2.783620   -1.278702   -0.834002
  H      1.394948    0.045663    2.524860
  H     -1.394983    0.044974    2.524857
  H     -3.850466   -1.303064   -1.102734
  H     -2.556536   -2.170238   -0.230307
  H     -2.189433   -1.327080   -1.760390
  H     -2.195141    1.289900   -1.784041
  H     -2.569185    2.158660   -0.269841
  H     -3.856893    1.268470   -1.128130
  H      2.557121   -2.169921   -0.229081
  H      3.850762   -1.302890   -1.102082
  H      2.189672   -1.327651   -1.759578
  H      2.568608    2.158954   -0.271006
  H      2.194920    1.289337   -1.784798
  H      3.856608    1.268627   -1.128711

 Multiplicity           Mult            ....    1
 Number of Electrons    NEL             ....   84
 Basis Dimension        Dim             ....  234

ORBITAL ENERGIES
----------------

  NO   OCC          E(Eh)            E(eV)
   0   2.0000     -14.446465      -393.1083
   1   2.0000     -14.446462      -393.1082
   2   2.0000     -10.308923      -280.5201
   3   2.0000     -10.308892      -280.5192
   4   2.0000     -10.293336      -280.0959
   5   2.0000     -10.292761      -280.0803
   6   2.0000     -10.274194      -279.5750
   7   2.0000     -10.260349      -279.1983
   8   2.0000     -10.260342      -279.1981
   9   2.0000     -10.260306      -279.1971
  10   2.0000     -10.260297      -279.1969
  11   2.0000      -1.146770       -31.2052
  12   2.0000      -1.038814       -28.2676
  13   2.0000      -0.934445       -25.4275
  14   2.0000      -0.883957       -24.0537
  15   2.0000      -0.858471       -23.3602
  16   2.0000      -0.805994       -21.9322
  17   2.0000      -0.805423       -21.9167
  18   2.0000      -0.772673       -21.0255
  19   2.0000      -0.721236       -19.6258
  20   2.0000      -0.695414       -18.9232
  21   2.0000      -0.651256       -17.7216
  22   2.0000      -0.623099       -16.9554
  23   2.0000      -0.575440       -15.6585
  24   2.0000      -0.567864       -15.4524
  25   2.0000      -0.566619       -15.4185
  26   2.0000      -0.558998       -15.2111
  27   2.0000      -0.534598       -14.5471
  28   2.0000      -0.532874       -14.5002
  29   2.0000      -0.525135       -14.2897
  30   2.0000      -0.496832       -13.5195
  31   2.0000      -0.488215       -13.2850
  32   2.0000      -0.481871       -13.1124
  33   2.0000      -0.476617       -12.9694
  34   2.0000      -0.469579       -12.7779
  35   2.0000      -0.454690       -12.3727
  36   2.0000      -0.445265       -12.1163
  37   2.0000      -0.440259       -11.9801
  38   2.0000      -0.435500       -11.8505
  39   2.0000      -0.371251       -10.1023
  40   2.0000      -0.322282        -8.7697
  41   2.0000      -0.320720        -8.7272
  42   0.0000       0.126447         3.4408
  43   0.0000       0.128888         3.5072
  44   0.0000       0.150798         4.1034
  45   0.0000       0.157006         4.2724
  46   0.0000       0.177754         4.8369

MULLIKEN ATOMIC CHARGES
-----------------------
   0 N :   -0.221182
   1 C :   -0.192233
   2 N :   -0.221183
   3 C :    0.011003
   4 C :    0.011004
   5 C :    0.002094
   6 C :    0.002096
   7 C :   -0.006546
   8 H :    0.041637
   9 C :   -0.006757
  10 H :    0.041637
  11 C :   -0.006560
  12 C :   -0.006743
  13 H :    0.064936
  14 H :    0.064936
  15 H :    0.041678
  16 H :    0.036372
  17 H :    0.027403
  18 H :    0.027392
  19 H :    0.036343
  20 H :    0.041742
  21 H :    0.036375
  22 H :    0.041681
  23 H :    0.027401
  24 H :    0.036340
  25 H :    0.027395
  26 H :    0.041738
Sum of atomic charges:    0.0000000

LOEWDIN ATOMIC CHARGES
----------------------
   0 N :    0.034156
   1 C :   -0.311379
   2 N :    0.034155
   3 C :   -0.039987
   4 C :   -0.039988
   5 C :    0.032301
   6 C :    0.032300
   7 C :   -0.060053
   8 H :    0.032951
   9 C :   -0.060029
  10 H :    0.032951
  11 C :   -0.060052
  12 C :   -0.060029
  13 H :    0.040864
  14 H :    0.040864
  15 H :    0.033598
  16 H :    0.029538
  17 H :    0.024567
  18 H :    0.024635
  19 H :    0.029531
  20 H :    0.033619
  21 H :    0.029538
  22 H :    0.033599
  23 H :    0.024570
  24 H :    0.029531
  25 H :    0.024632
  26 H :    0.033618

  Mayer bond orders larger than 0.100000
B(  0-N ,  1-C ) :   1.2522 B(  0-N ,  4-C ) :   1.1349 B(  0-N ,  5-C ) :   0.8947
B(  1-C ,  2-N ) :   1.2522 B(  2-N ,  3-C ) :   1.1349 B(  2-N ,  6-C ) :   0.8947
B(  3-C ,  4-C ) :   1.6114 B(  3-C , 13-H ) :   0.9890 B(  4-C , 14-H ) :   0.9890
B(  5-C ,  7-C ) :   1.0727 B(  5-C ,  8-H ) :   0.9445 B(  5-C ,  9-C ) :   1.0726
B(  6-C , 10-H ) :   0.9445 B(  6-C , 11-C ) :   1.0727 B(  6-C , 12-C ) :   1.0726
B(  7-C , 18-H ) :   0.9639 B(  7-C , 19-H ) :   0.9687 B(  7-C , 20-H ) :   0.9715
B(  9-C , 15-H ) :   0.9714 B(  9-C , 16-H ) :   0.9687 B(  9-C , 17-H ) :   0.9638
B( 11-C , 24-H ) :   0.9687 B( 11-C , 25-H ) :   0.9639 B( 11-C , 26-H ) :   0.9715
B( 12-C , 21-H ) :   0.9687 B( 12-C , 22-H ) :   0.9714 B( 12-C , 23-H ) :   0.9638

Dispersion correction           -0.004152778
FINAL SINGLE POINT ENERGY      -461.631883809083

DIPOLE MOMENT
-------------
                                X             Y             Z
Electronic contribution:     -0.00004       0.08748       6.53040
Nuclear contribution   :      0.00004      -0.06284      -5.19132
                        -----------------------------------------
Total Dipole Moment    :     -0.00001       0.02464       1.33907
                        -----------------------------------------
Magnitude (a.u.)       :      1.33930
Magnitude (Debye)      :      3.40423

Dispersion correction in the Hessian             ... Starting D4

VIBRATIONAL FREQUENCIES
-----------------------

Scaling factor for frequencies =  1.000000000  (already applied!)

   0:         0.00 cm**-1
   1:         0.00 cm**-1
   2:         0.00 cm**-1
   3:         0.00 cm**-1
   4:         0.00 cm**-1
   5:         0.00 cm**-1
   6:        42.02 cm**-1
   7:        52.89 cm**-1
   8:        89.53 cm**-1
   9:       149.69 cm**-1
  10:       175.43 cm**-1
  11:       259.59 cm**-1
  12:       259.98 cm**-1
  13:       276.13 cm**-1
  14:       289.79 cm**-1
  15:       316.99 cm**-1
  16:       330.52 cm**-1
  17:       346.51 cm**-1
  18:       403.74 cm**-1
  19:       456.54 cm**-1
  20:       487.68 cm**-1
  21:       529.84 cm**-1
  22:       614.71 cm**-1
  23:       670.80 cm**-1
  24:       683.36 cm**-1
  25:       723.06 cm**-1
  26:       743.76 cm**-1
  27:       875.69 cm**-1
  28:       911.54 cm**-1
  29:       922.05 cm**-1
  30:       934.18 cm**-1
  31:       934.40 cm**-1
  32:       963.45 cm**-1
  33:       964.13 cm**-1
  34:      1012.36 cm**-1
  35:      1024.03 cm**-1
  36:      1088.94 cm**-1
  37:      1119.60 cm**-1
  38:      1145.82 cm**-1
  39:      1160.91 cm**-1
  40:      1171.43 cm**-1
  41:      1171.52 cm**-1
  42:      1191.12 cm**-1
  43:      1226.42 cm**-1
  44:      1327.16 cm**-1
  45:      1333.38 cm**-1
  46:      1349.48 cm**-1
  47:      1349.50 cm**-1
  48:      1394.77 cm**-1
  49:      1395.89 cm**-1
  50:      1402.14 cm**-1
  51:      1402.23 cm**-1
  52:      1414.03 cm**-1
  53:      1435.30 cm**-1
  54:      1447.86 cm**-1
  55:      1447.87 cm**-1
  56:      1452.47 cm**-1
  57:      1455.58 cm**-1
  58:      1455.59 cm**-1
  59:      1458.56 cm**-1
  60:      1468.73 cm**-1
  61:      1475.09 cm**-1
  62:      1483.46 cm**-1
  63:      1494.49 cm**-1
  64:      1648.58 cm**-1
  65:      3066.63 cm**-1
  66:      3066.64 cm**-1
  67:      3069.31 cm**-1
  68:      3069.41 cm**-1
  69:      3107.99 cm**-1
  70:      3108.14 cm**-1
  71:      3171.94 cm**-1
  72:      3171.95 cm**-1
  73:      3172.95 cm**-1
  74:      3172.98 cm**-1
  75:      3174.02 cm**-1
  76:      3174.02 cm**-1
  77:      3177.38 cm**-1
  78:      3177.60 cm**-1
  79:      3281.62 cm**-1
  80:      3302.52 cm**-1

IR SPECTRUM
-----------

 Mode   freq       eps      Int      T**2         TX        TY        TZ
       cm**-1   L/(mol*cm) km/mol    a.u.
----------------------------------------------------------------------------
  6:     42.02   0.002256   11.40  0.016751  (-0.000030  0.129414 -0.001883)
  7:     52.89   0.000000    0.00  0.000000  ( 0.000020  0.000314 -0.000008)
  8:     89.53   0.001089    5.50  0.003796  ( 0.000003  0.061603 -0.001028)
  9:    149.69   0.000289    1.46  0.000602  ( 0.000001 -0.000341  0.024542)
 10:    175.43   0.000000    0.00  0.000000  (-0.000268 -0.000000 -0.000011)
 11:    259.59   0.000020    0.10  0.000024  ( 0.000142 -0.004912  0.000156)
 12:    259.98   0.000002    0.01  0.000002  ( 0.001429  0.000250 -0.000002)
 13:    276.13   0.000741    3.74  0.000837  (-0.028933 -0.000026  0.000003)
 14:    289.79   0.000002    0.01  0.000002  (-0.000029 -0.000073  0.001366)
 15:    316.99   0.000381    1.93  0.000375  ( 0.000015 -0.000566  0.019359)
 16:    330.52   0.001274    6.44  0.001203  (-0.034681 -0.000002  0.000003)
 17:    346.51   0.000469    2.37  0.000423  (-0.020555 -0.000007  0.000002)
 18:    403.74   0.003945   19.94  0.003049  (-0.000013  0.055212 -0.000845)
 19:    456.54   0.000000    0.00  0.000000  ( 0.000245 -0.000001 -0.000007)
 20:    487.68   0.000121    0.61  0.000078  (-0.000000 -0.000236 -0.008811)
 21:    529.84   0.000044    0.22  0.000026  (-0.005100 -0.000001  0.000001)
 22:    614.71   0.000495    2.50  0.000251  ( 0.000000 -0.000465 -0.015839)
 23:    670.80   0.000000    0.00  0.000000  ( 0.000105 -0.000006 -0.000003)
 24:    683.36   0.003237   16.36  0.001478  ( 0.000011  0.038440 -0.000713)
 25:    723.06   0.002660   13.44  0.001148  ( 0.033885 -0.000025  0.000001)
 26:    743.76   0.014099   71.25  0.005916  (-0.000009  0.076897 -0.001633)
 27:    875.69   0.000000    0.00  0.000000  ( 0.000123  0.000003  0.000003)
 28:    911.54   0.000006    0.03  0.000002  (-0.000005 -0.000278 -0.001433)
 29:    922.05   0.001540    7.78  0.000521  ( 0.022828 -0.000020  0.000000)
 30:    934.18   0.000003    0.01  0.000001  (-0.000721  0.000681 -0.000014)
 31:    934.40   0.001001    5.06  0.000334  ( 0.000039  0.018279 -0.000265)
 32:    963.45   0.000000    0.00  0.000000  (-0.000156  0.000004 -0.000000)
 33:    964.13   0.000228    1.15  0.000074  (-0.000002  0.008589 -0.000011)
 34:   1012.36   0.004317   21.82  0.001331  ( 0.036481 -0.000001 -0.000000)
 35:   1024.03   0.000280    1.42  0.000085  (-0.000002  0.000084 -0.009240)
 36:   1088.94   0.004907   24.80  0.001406  (-0.000001  0.001247  0.037479)
 37:   1119.60   0.000678    3.43  0.000189  (-0.000003 -0.000274 -0.013742)
 38:   1145.82   0.010628   53.71  0.002895  ( 0.053801  0.000002  0.000001)
 39:   1160.91   0.004521   22.85  0.001215  ( 0.034860  0.000001 -0.000000)
 40:   1171.43   0.003357   16.96  0.000894  (-0.000002 -0.029901  0.000446)
 41:   1171.52   0.000003    0.01  0.000001  ( 0.000610  0.000645 -0.000006)
 42:   1191.12   0.001013    5.12  0.000265  ( 0.000004  0.000250 -0.016290)
 43:   1226.42   0.008455   42.73  0.002151  ( 0.046382  0.000011  0.000001)
 44:   1327.16   0.014280   72.17  0.003358  ( 0.057947 -0.000005  0.000000)
 45:   1333.38   0.000009    0.05  0.000002  (-0.000015 -0.000068  0.001477)
 46:   1349.48   0.000003    0.01  0.000001  (-0.000307 -0.000742  0.000017)
 47:   1349.50   0.000019    0.10  0.000004  ( 0.000087 -0.002111  0.000062)
 48:   1394.77   0.000503    2.54  0.000112  (-0.010606  0.000028  0.000043)
 49:   1395.89   0.002350   11.87  0.000525  ( 0.000021  0.000584  0.022911)
 50:   1402.14   0.000004    0.02  0.000001  ( 0.000126  0.000979 -0.000018)
 51:   1402.23   0.009106   46.02  0.002027  (-0.000007  0.045015 -0.000475)
 52:   1414.03   0.003546   17.92  0.000782  ( 0.000001 -0.000453 -0.027969)
 53:   1435.30   0.006809   34.41  0.001480  ( 0.038475  0.000012 -0.000004)
 54:   1447.86   0.000221    1.11  0.000048  (-0.000125  0.006801 -0.001122)
 55:   1447.87   0.000005    0.03  0.000001  (-0.000782 -0.000747  0.000073)
 56:   1452.47   0.010173   51.41  0.002186  ( 0.000004  0.000596  0.046747)
 57:   1455.58   0.000010    0.05  0.000002  ( 0.000657  0.001323 -0.000081)
 58:   1455.59   0.000123    0.62  0.000026  (-0.000072  0.005125 -0.000209)
 59:   1458.56   0.006218   31.42  0.001330  (-0.036473  0.000004 -0.000000)
 60:   1468.73   0.000004    0.02  0.000001  ( 0.000005  0.000272  0.000849)
 61:   1475.09   0.013359   67.51  0.002826  ( 0.053162  0.000007  0.000003)
 62:   1483.46   0.002414   12.20  0.000508  ( 0.022535 -0.000003 -0.000009)
 63:   1494.49   0.004299   21.73  0.000898  (-0.000001  0.000438  0.029959)
 64:   1648.58   0.000385    1.94  0.000073  (-0.000000 -0.000033  0.008533)
 65:   3066.63   0.011122   56.21  0.001132  ( 0.000057 -0.033615  0.001367)
 66:   3066.64   0.000031    0.16  0.000003  ( 0.000838  0.001576 -0.000050)
 67:   3069.31   0.001692    8.55  0.000172  (-0.013117 -0.000022  0.000114)
 68:   3069.41   0.002792   14.11  0.000284  (-0.000087 -0.002295 -0.016690)
 69:   3107.99   0.004081   20.62  0.000410  ( 0.020242  0.000012  0.000009)
 70:   3108.14   0.004974   25.13  0.000499  ( 0.000008 -0.000107 -0.022346)
 71:   3171.94   0.007584   38.33  0.000746  (-0.000118  0.026834  0.005108)
 72:   3171.95   0.000033    0.16  0.000003  ( 0.001076  0.001413  0.000222)
 73:   3172.95   0.001329    6.72  0.000131  ( 0.011343 -0.000127  0.001424)
 74:   3172.98   0.010990   55.54  0.001081  (-0.000502 -0.003897  0.032641)
 75:   3174.02   0.000068    0.34  0.000007  (-0.002132  0.000192  0.001456)
 76:   3174.02   0.000094    0.48  0.000009  ( 0.002719  0.000162  0.001353)
 77:   3177.38   0.018897   95.50  0.001856  (-0.043081 -0.000026 -0.000075)
 78:   3177.60   0.002046   10.34  0.000201  (-0.000227 -0.000341  0.014168)
 79:   3281.62   0.001341    6.78  0.000128  (-0.011293 -0.000002 -0.000000)
 80:   3302.52   0.000134    0.68  0.000013  ( 0.000000 -0.000118 -0.003562)

--------------------------
THERMOCHEMISTRY AT 298.15K
--------------------------

Temperature         ... 298.15 K
Pressure            ... 1.00 atm
Total Mass          ... 152.24 AMU

Throughout the following assumptions are being made:
  (1) The electronic state is orbitally nondegenerate
  (2) There are no thermally accessible electronically excited states
  (3) Hindered rotations indicated by low frequency modes are not
      treated as such but are treated as vibrations and this may
      cause some error
  (4) All equations used are the standard statistical mechanics
      equations for an ideal gas
  (5) All vibrations are strictly harmonic

freq.      42.02  E(vib)   ...       0.53
freq.      52.89  E(vib)   ...       0.52
freq.      89.53  E(vib)   ...       0.47
freq.     149.69  E(vib)   ...       0.40
freq.     175.43  E(vib)   ...       0.38
freq.     259.59  E(vib)   ...       0.30
freq.     259.98  E(vib)   ...       0.30
freq.     276.13  E(vib)   ...       0.28
freq.     289.79  E(vib)   ...       0.27
freq.     316.99  E(vib)   ...       0.25
freq.     330.52  E(vib)   ...       0.24
freq.     346.51  E(vib)   ...       0.23
freq.     403.74  E(vib)   ...       0.19
freq.     456.54  E(vib)   ...       0.16
freq.     487.68  E(vib)   ...       0.15
freq.     529.84  E(vib)   ...       0.13
freq.     614.71  E(vib)   ...       0.10
freq.     670.80  E(vib)   ...       0.08
freq.     683.36  E(vib)   ...       0.08
freq.     723.06  E(vib)   ...       0.07
freq.     743.76  E(vib)   ...       0.06
freq.     875.69  E(vib)   ...       0.04
freq.     911.54  E(vib)   ...       0.03
freq.     922.05  E(vib)   ...       0.03
freq.     934.18  E(vib)   ...       0.03
freq.     934.40  E(vib)   ...       0.03
freq.     963.45  E(vib)   ...       0.03
freq.     964.13  E(vib)   ...       0.03
freq.    1012.36  E(vib)   ...       0.02
freq.    1024.03  E(vib)   ...       0.02
freq.    1088.94  E(vib)   ...       0.02
freq.    1119.60  E(vib)   ...       0.01
freq.    1145.82  E(vib)   ...       0.01
freq.    1160.91  E(vib)   ...       0.01
freq.    1171.43  E(vib)   ...       0.01
freq.    1171.52  E(vib)   ...       0.01
freq.    1191.12  E(vib)   ...       0.01
freq.    1226.42  E(vib)   ...       0.01
freq.    1327.16  E(vib)   ...       0.01
freq.    1333.38  E(vib)   ...       0.01
freq.    1349.48  E(vib)   ...       0.01
freq.    1349.50  E(vib)   ...       0.01
freq.    1394.77  E(vib)   ...       0.00
freq.    1395.89  E(vib)   ...       0.00
freq.    1402.14  E(vib)   ...       0.00
freq.    1402.23  E(vib)   ...       0.00
freq.    1414.03  E(vib)   ...       0.00
freq.    1435.30  E(vib)   ...       0.00
freq.    1447.86  E(vib)   ...       0.00
freq.    1447.87  E(vib)   ...       0.00
freq.    1452.47  E(vib)   ...       0.00
freq.    1455.58  E(vib)   ...       0.00
freq.    1455.59  E(vib)   ...       0.00
freq.    1458.56  E(vib)   ...       0.00
freq.    1468.73  E(vib)   ...       0.00
freq.    1475.09  E(vib)   ...       0.00
freq.    1483.46  E(vib)   ...       0.00
freq.    1494.49  E(vib)   ...       0.00
freq.    1648.58  E(vib)   ...       0.00
freq.    3066.63  E(vib)   ...       0.00
freq.    3066.64  E(vib)   ...       0.00
freq.    3069.31  E(vib)   ...       0.00
freq.    3069.41  E(vib)   ...       0.00
freq.    3107.99  E(vib)   ...       0.00
freq.    3108.14  E(vib)   ...       0.00
freq.    3171.94  E(vib)   ...       0.00
freq.    3171.95  E(vib)   ...       0.00
freq.    3172.95  E(vib)   ...       0.00
freq.    3172.98  E(vib)   ...       0.00
freq.    3174.02  E(vib)   ...       0.00
freq.    3174.02  E(vib)   ...       0.00
freq.    3177.38  E(vib)   ...       0.00
freq.    3177.60  E(vib)   ...       0.00
freq.    3281.62  E(vib)   ...       0.00
freq.    3302.52  E(vib)   ...       0.00

------------
INNER ENERGY
------------

The inner energy is: U= E(el) + E(ZPE) + E(vib) + E(rot) + E(trans)
    E(el)   - is the total energy from the electronic structure calculation
              = E(kin-el) + E(nuc-el) + E(el-el) + E(nuc-nuc)
    E(ZPE)  - the the zero temperature vibrational energy from the frequency calculation
    E(vib)  - the the finite temperature correction to E(ZPE) due to population
              of excited vibrational states
    E(rot)  - is the rotational thermal energy
    E(trans)- is the translational thermal energy

Summary of contributions to the inner energy U:
Electronic energy                ...   -461.63188381 Eh
Zero point energy                ...      0.24211774 Eh     151.93 kcal/mol
Thermal vibrational correction   ...      0.00896395 Eh       5.62 kcal/mol
Thermal rotational correction    ...      0.00141627 Eh       0.89 kcal/mol
Thermal translational correction ...      0.00141627 Eh       0.89 kcal/mol
-----------------------------------------------------------------------
Total thermal energy                   -461.37796957 Eh

Summary of corrections to the electronic energy:
(perhaps to be used in another calculation)
Total thermal correction                  0.01179649 Eh       7.40 kcal/mol
Non-thermal (ZPE) correction              0.24211774 Eh     151.93 kcal/mol
-----------------------------------------------------------------------
Total correction                          0.25391424 Eh     159.33 kcal/mol

--------
ENTHALPY
--------

The enthalpy is H = U + kB*T
                kB is Boltzmann's constant
Total free energy                 ...   -461.37796957 Eh
Thermal Enthalpy correction       ...      0.00094421 Eh       0.59 kcal/mol
-----------------------------------------------------------------------
Total Enthalpy                    ...   -461.37702536 Eh

Note: Only C1 symmetry has been detected, increase convergence thresholds
      if your molecule has a higher symmetry. Symmetry factor of 1.0 is
      used for the rotational entropy correction.

Note: Rotational entropy computed according to Herzberg
Infrared and Raman Spectra, Chapter V,1, Van Nostrand Reinhold, 1945
Point Group:  C1, Symmetry Number:   1
Rotational constants in cm-1:     0.066668     0.021084     0.020231

Vibrational entropy computed according to the QRRHO of S. Grimme
Chem.Eur.J. 2012 18 9955

-------
ENTROPY
-------

The entropy contributions are T*S = T*(S(el)+S(vib)+S(rot)+S(trans))
     S(el)   - electronic entropy
     S(vib)  - vibrational entropy
     S(rot)  - rotational entropy
     S(trans)- translational entropy
The entropies will be listed as multiplied by the temperature to get
units of energy

                             ****ORCA TERMINATED NORMALLY****
TOTAL RUN TIME: 0 days 1 hours 11 minutes 34 seconds 21 msec
