                         Program Version 5.0.4 -  RELEASE  -
|  1> # ORCA 5.0.4 - /users/bwb16179/postgrad/2024_03/DFT_Crest_Conformers/Opt/deprot/4_deprot_aq_7.inp # write input file
|  2> # Basic Mode
|  3> #
|  4> ! Opt Freq wB97X Def2-SVP D4 SlowConv TightSCF Defgrid2 Def2/J RIJCOSX CPCM(Water)
|  5>
|  6>
|  7>
|  8> %maxcore 4500
|  9>
| 10> %geom
| 11> Maxiter 150
| 12> END
| 13>
| 14> * xyzfile 0 1 4_deprot_aq_7.xyz
| 15>
| 16>                          ****END OF INPUT****
 Total Charge           Charge          ....    0
 Multiplicity           Mult            ....    1
 Number of Electrons    NEL             ....   84
Dispersion correction           -0.004202191
FINAL SINGLE POINT ENERGY      -461.626775589766
Dispersion correction            ... Starting D4
Dispersion correction           -0.004157367
FINAL SINGLE POINT ENERGY      -461.630776458350
Dispersion correction            ... Starting D4
Dispersion correction           -0.004151308
FINAL SINGLE POINT ENERGY      -461.631152704120
Dispersion correction            ... Starting D4
FINAL SINGLE POINT ENERGY      -461.631347772728
FINAL SINGLE POINT ENERGY      -461.631446488329
FINAL SINGLE POINT ENERGY      -461.631484730079
FINAL SINGLE POINT ENERGY      -461.631460047234
FINAL SINGLE POINT ENERGY      -461.631589775107
FINAL SINGLE POINT ENERGY      -461.631791190734
FINAL SINGLE POINT ENERGY      -461.631842537063
FINAL SINGLE POINT ENERGY      -461.631874100400
Dispersion correction           -0.004152608
FINAL SINGLE POINT ENERGY      -461.631881857377
Dispersion correction            ... Starting D4
Dispersion correction           -0.004152686
FINAL SINGLE POINT ENERGY      -461.631882929650
Dispersion correction            ... Starting D4
                    ***********************HURRAY********************

CARTESIAN COORDINATES (ANGSTROEM)
---------------------------------
  N     -1.061326    0.012264    0.388656
  C      0.000093   -0.000559   -0.457632
  N      1.061380   -0.004934    0.388895
  C      0.677977    0.004716    1.719863
  C     -0.678106    0.015674    1.719710
  C     -2.463331    0.020218   -0.050246
  C      2.463407   -0.020612   -0.049728
  C     -2.777558    1.285505   -0.838863
  H     -3.057704    0.028972    0.877586
  C     -2.795499   -1.248249   -0.826447
  H      3.057714   -0.019651    0.878188
  C      2.798317    1.238025   -0.840497
  C      2.774910   -1.295674   -0.823677
  H      1.395078    0.003628    2.539376
  H     -1.395319    0.026040    2.539062
  H     -2.578448   -2.144536   -0.225498
  H     -2.201074   -1.298533   -1.751687
  H     -3.862553   -1.260820   -1.095717
  H     -2.545763    2.184356   -0.247323
  H     -3.844824    1.311305   -1.106284
  H     -2.184053    1.317752   -1.765505
  H      2.540826   -2.187217   -0.222080
  H      3.842161   -1.327066   -1.090555
  H      2.181432   -1.336964   -1.749982
  H      2.583367    2.141596   -0.249775
  H      2.204069    1.279167   -1.766298
  H      3.865395    1.245087   -1.109891

 Multiplicity           Mult            ....    1
 Number of Electrons    NEL             ....   84
 Basis Dimension        Dim             ....  234

ORBITAL ENERGIES
----------------

  NO   OCC          E(Eh)            E(eV)
   0   2.0000     -14.446468      -393.1084
   1   2.0000     -14.446464      -393.1083
   2   2.0000     -10.308926      -280.5201
   3   2.0000     -10.308895      -280.5193
   4   2.0000     -10.293349      -280.0963
   5   2.0000     -10.292775      -280.0806
   6   2.0000     -10.274208      -279.5754
   7   2.0000     -10.260335      -279.1979
   8   2.0000     -10.260331      -279.1978
   9   2.0000     -10.260326      -279.1977
  10   2.0000     -10.260316      -279.1974
  11   2.0000      -1.146777       -31.2054
  12   2.0000      -1.038825       -28.2679
  13   2.0000      -0.934442       -25.4275
  14   2.0000      -0.883949       -24.0535
  15   2.0000      -0.858478       -23.3604
  16   2.0000      -0.805981       -21.9319
  17   2.0000      -0.805410       -21.9163
  18   2.0000      -0.772686       -21.0258
  19   2.0000      -0.721250       -19.6262
  20   2.0000      -0.695414       -18.9232
  21   2.0000      -0.651240       -17.7211
  22   2.0000      -0.623112       -16.9557
  23   2.0000      -0.575442       -15.6586
  24   2.0000      -0.567864       -15.4524
  25   2.0000      -0.566636       -15.4189
  26   2.0000      -0.558988       -15.2108
  27   2.0000      -0.534603       -14.5473
  28   2.0000      -0.532862       -14.4999
  29   2.0000      -0.525136       -14.2897
  30   2.0000      -0.496812       -13.5189
  31   2.0000      -0.488220       -13.2851
  32   2.0000      -0.481884       -13.1127
  33   2.0000      -0.476639       -12.9700
  34   2.0000      -0.469582       -12.7780
  35   2.0000      -0.454667       -12.3721
  36   2.0000      -0.445234       -12.1154
  37   2.0000      -0.440270       -11.9804
  38   2.0000      -0.435519       -11.8511
  39   2.0000      -0.371243       -10.1020
  40   2.0000      -0.322285        -8.7698
  41   2.0000      -0.320741        -8.7278
  42   0.0000       0.126435         3.4405
  43   0.0000       0.128884         3.5071
  44   0.0000       0.150794         4.1033
  45   0.0000       0.157008         4.2724
  46   0.0000       0.177742         4.8366

MULLIKEN ATOMIC CHARGES
-----------------------
   0 N :   -0.221169
   1 C :   -0.192264
   2 N :   -0.221168
   3 C :    0.011036
   4 C :    0.011027
   5 C :    0.002045
   6 C :    0.002050
   7 C :   -0.006642
   8 H :    0.041660
   9 C :   -0.006712
  10 H :    0.041664
  11 C :   -0.006763
  12 C :   -0.006590
  13 H :    0.064946
  14 H :    0.064948
  15 H :    0.036351
  16 H :    0.027394
  17 H :    0.041701
  18 H :    0.036336
  19 H :    0.041757
  20 H :    0.027431
  21 H :    0.036326
  22 H :    0.041742
  23 H :    0.027423
  24 H :    0.036362
  25 H :    0.027399
  26 H :    0.041711
Sum of atomic charges:    0.0000000

LOEWDIN ATOMIC CHARGES
----------------------
   0 N :    0.034157
   1 C :   -0.311384
   2 N :    0.034162
   3 C :   -0.039973
   4 C :   -0.039975
   5 C :    0.032287
   6 C :    0.032290
   7 C :   -0.060036
   8 H :    0.032957
   9 C :   -0.060053
  10 H :    0.032958
  11 C :   -0.060054
  12 C :   -0.060036
  13 H :    0.040866
  14 H :    0.040866
  15 H :    0.029523
  16 H :    0.024589
  17 H :    0.033600
  18 H :    0.029534
  19 H :    0.033622
  20 H :    0.024618
  21 H :    0.029530
  22 H :    0.033603
  23 H :    0.024616
  24 H :    0.029528
  25 H :    0.024590
  26 H :    0.033615

  Mayer bond orders larger than 0.100000
B(  0-N ,  1-C ) :   1.2522 B(  0-N ,  4-C ) :   1.1349 B(  0-N ,  5-C ) :   0.8948
B(  1-C ,  2-N ) :   1.2522 B(  2-N ,  3-C ) :   1.1349 B(  2-N ,  6-C ) :   0.8948
B(  3-C ,  4-C ) :   1.6113 B(  3-C , 13-H ) :   0.9890 B(  4-C , 14-H ) :   0.9890
B(  5-C ,  7-C ) :   1.0727 B(  5-C ,  8-H ) :   0.9445 B(  5-C ,  9-C ) :   1.0726
B(  6-C , 10-H ) :   0.9445 B(  6-C , 11-C ) :   1.0726 B(  6-C , 12-C ) :   1.0727
B(  7-C , 18-H ) :   0.9687 B(  7-C , 19-H ) :   0.9715 B(  7-C , 20-H ) :   0.9639
B(  9-C , 15-H ) :   0.9687 B(  9-C , 16-H ) :   0.9638 B(  9-C , 17-H ) :   0.9715
B( 11-C , 24-H ) :   0.9687 B( 11-C , 25-H ) :   0.9639 B( 11-C , 26-H ) :   0.9715
B( 12-C , 21-H ) :   0.9687 B( 12-C , 22-H ) :   0.9715 B( 12-C , 23-H ) :   0.9639

Dispersion correction           -0.004152795
FINAL SINGLE POINT ENERGY      -461.631885103580

DIPOLE MOMENT
-------------
                                X             Y             Z
Electronic contribution:     -0.00004       0.04528       6.53136
Nuclear contribution   :     -0.00007      -0.03989      -5.19183
                        -----------------------------------------
Total Dipole Moment    :     -0.00011       0.00539       1.33953
                        -----------------------------------------
Magnitude (a.u.)       :      1.33954
Magnitude (Debye)      :      3.40484

Dispersion correction in the Hessian             ... Starting D4

VIBRATIONAL FREQUENCIES
-----------------------

Scaling factor for frequencies =  1.000000000  (already applied!)

   0:         0.00 cm**-1
   1:         0.00 cm**-1
   2:         0.00 cm**-1
   3:         0.00 cm**-1
   4:         0.00 cm**-1
   5:         0.00 cm**-1
   6:        41.02 cm**-1
   7:        53.20 cm**-1
   8:        89.82 cm**-1
   9:       149.72 cm**-1
  10:       175.46 cm**-1
  11:       259.54 cm**-1
  12:       259.96 cm**-1
  13:       276.28 cm**-1
  14:       290.07 cm**-1
  15:       317.05 cm**-1
  16:       330.64 cm**-1
  17:       346.55 cm**-1
  18:       403.74 cm**-1
  19:       456.49 cm**-1
  20:       487.67 cm**-1
  21:       529.89 cm**-1
  22:       614.72 cm**-1
  23:       670.67 cm**-1
  24:       683.30 cm**-1
  25:       723.08 cm**-1
  26:       743.69 cm**-1
  27:       875.55 cm**-1
  28:       911.55 cm**-1
  29:       922.07 cm**-1
  30:       934.20 cm**-1
  31:       934.42 cm**-1
  32:       963.37 cm**-1
  33:       964.05 cm**-1
  34:      1012.39 cm**-1
  35:      1024.03 cm**-1
  36:      1088.96 cm**-1
  37:      1119.62 cm**-1
  38:      1145.84 cm**-1
  39:      1160.91 cm**-1
  40:      1171.29 cm**-1
  41:      1171.37 cm**-1
  42:      1191.09 cm**-1
  43:      1226.42 cm**-1
  44:      1327.17 cm**-1
  45:      1333.41 cm**-1
  46:      1349.42 cm**-1
  47:      1349.44 cm**-1
  48:      1394.73 cm**-1
  49:      1395.85 cm**-1
  50:      1402.03 cm**-1
  51:      1402.12 cm**-1
  52:      1414.10 cm**-1
  53:      1435.30 cm**-1
  54:      1447.84 cm**-1
  55:      1447.86 cm**-1
  56:      1452.42 cm**-1
  57:      1455.56 cm**-1
  58:      1455.58 cm**-1
  59:      1458.57 cm**-1
  60:      1468.77 cm**-1
  61:      1475.10 cm**-1
  62:      1483.51 cm**-1
  63:      1494.51 cm**-1
  64:      1648.62 cm**-1
  65:      3066.54 cm**-1
  66:      3066.55 cm**-1
  67:      3069.21 cm**-1
  68:      3069.30 cm**-1
  69:      3108.06 cm**-1
  70:      3108.21 cm**-1
  71:      3171.80 cm**-1
  72:      3171.82 cm**-1
  73:      3172.77 cm**-1
  74:      3172.80 cm**-1
  75:      3173.99 cm**-1
  76:      3174.01 cm**-1
  77:      3177.36 cm**-1
  78:      3177.58 cm**-1
  79:      3281.50 cm**-1
  80:      3302.41 cm**-1

IR SPECTRUM
-----------

 Mode   freq       eps      Int      T**2         TX        TY        TZ
       cm**-1   L/(mol*cm) km/mol    a.u.
----------------------------------------------------------------------------
  6:     41.02   0.002258   11.41  0.017176  ( 0.001227  0.131050 -0.000421)
  7:     53.20   0.000000    0.00  0.000002  ( 0.000165 -0.001255 -0.000031)
  8:     89.82   0.001088    5.50  0.003781  ( 0.000640  0.061483 -0.000183)
  9:    149.72   0.000288    1.46  0.000600  ( 0.000014 -0.000290  0.024499)
 10:    175.46   0.000000    0.00  0.000000  ( 0.000083 -0.000013 -0.000044)
 11:    259.54   0.000022    0.11  0.000026  (-0.001551 -0.004853  0.000096)
 12:    259.96   0.000001    0.00  0.000001  ( 0.000661 -0.000633 -0.000214)
 13:    276.28   0.000747    3.78  0.000844  ( 0.029034 -0.001115  0.000035)
 14:    290.07   0.000002    0.01  0.000002  (-0.000111  0.000013  0.001383)
 15:    317.05   0.000381    1.92  0.000375  (-0.000163 -0.000137  0.019354)
 16:    330.64   0.001261    6.37  0.001190  ( 0.034491  0.000363  0.000075)
 17:    346.55   0.000474    2.39  0.000426  (-0.020649  0.000296  0.000012)
 18:    403.74   0.003941   19.92  0.003047  ( 0.000204  0.055194 -0.000270)
 19:    456.49   0.000000    0.00  0.000000  (-0.000129  0.000012  0.000076)
 20:    487.67   0.000121    0.61  0.000078  (-0.000002 -0.000047 -0.008816)
 21:    529.89   0.000044    0.22  0.000026  (-0.005109  0.000092 -0.000004)
 22:    614.72   0.000493    2.49  0.000250  ( 0.000001 -0.000186 -0.015811)
 23:    670.67   0.000000    0.00  0.000000  ( 0.000260  0.000035  0.000030)
 24:    683.30   0.003255   16.45  0.001487  ( 0.000315  0.038555 -0.000237)
 25:    723.08   0.002659   13.44  0.001148  ( 0.033874 -0.000414  0.000009)
 26:    743.69   0.014073   71.12  0.005905  ( 0.000514  0.076843 -0.000492)
 27:    875.55   0.000000    0.00  0.000000  (-0.000096 -0.000009  0.000024)
 28:    911.55   0.000006    0.03  0.000002  (-0.000031 -0.000065 -0.001435)
 29:    922.07   0.001543    7.80  0.000522  ( 0.022852  0.000328 -0.000002)
 30:    934.20   0.000002    0.01  0.000001  (-0.000233 -0.000809 -0.000067)
 31:    934.42   0.001001    5.06  0.000334  (-0.000327  0.018283 -0.000118)
 32:    963.37   0.000001    0.00  0.000000  (-0.000134  0.000513 -0.000026)
 33:    964.05   0.000228    1.15  0.000074  (-0.000128  0.008584 -0.000014)
 34:   1012.39   0.004311   21.79  0.001329  ( 0.036454 -0.000187 -0.000011)
 35:   1024.03   0.000280    1.42  0.000085  (-0.000016  0.000029 -0.009239)
 36:   1088.96   0.004917   24.85  0.001409  ( 0.000007 -0.000356 -0.037536)
 37:   1119.62   0.000680    3.43  0.000189  (-0.000022 -0.000060 -0.013764)
 38:   1145.84   0.010644   53.79  0.002899  ( 0.053837 -0.000617 -0.000006)
 39:   1160.91   0.004477   22.63  0.001204  ( 0.034687 -0.000592  0.000023)
 40:   1171.29   0.003367   17.01  0.000897  ( 0.000864  0.029937 -0.000141)
 41:   1171.37   0.000000    0.00  0.000000  ( 0.000020 -0.000085 -0.000141)
 42:   1191.09   0.001010    5.10  0.000264  ( 0.000009  0.000132 -0.016263)
 43:   1226.42   0.008450   42.70  0.002150  ( 0.046366 -0.000415  0.000009)
 44:   1327.17   0.014271   72.12  0.003356  ( 0.057927 -0.000347  0.000008)
 45:   1333.41   0.000009    0.05  0.000002  ( 0.000059 -0.000122  0.001459)
 46:   1349.42   0.000009    0.04  0.000002  (-0.000296  0.001401  0.000033)
 47:   1349.44   0.000014    0.07  0.000003  ( 0.000081 -0.001816 -0.000019)
 48:   1394.73   0.000511    2.58  0.000114  (-0.010623 -0.001073  0.000561)
 49:   1395.85   0.002362   11.94  0.000528  ( 0.000236  0.000401  0.022976)
 50:   1402.03   0.000083    0.42  0.000019  ( 0.000005 -0.004271 -0.000533)
 51:   1402.12   0.009015   45.56  0.002006  (-0.000017 -0.044793  0.000172)
 52:   1414.10   0.003530   17.84  0.000779  (-0.000008 -0.000135 -0.027911)
 53:   1435.30   0.006782   34.27  0.001475  ( 0.038397 -0.000466 -0.000021)
 54:   1447.84   0.000203    1.03  0.000044  ( 0.000758  0.006576  0.000060)
 55:   1447.86   0.000039    0.20  0.000008  (-0.000754 -0.002135  0.001812)
 56:   1452.42   0.010145   51.27  0.002180  ( 0.000227  0.000212  0.046688)
 57:   1455.56   0.000079    0.40  0.000017  ( 0.002018 -0.003450  0.000946)
 58:   1455.58   0.000082    0.42  0.000018  (-0.001134  0.003998  0.000630)
 59:   1458.57   0.006216   31.41  0.001330  (-0.036466  0.000057  0.000272)
 60:   1468.77   0.000004    0.02  0.000001  ( 0.000035  0.000050  0.000925)
 61:   1475.10   0.013379   67.61  0.002830  ( 0.053200 -0.000394  0.000004)
 62:   1483.51   0.002423   12.25  0.000510  ( 0.022575 -0.000256  0.000013)
 63:   1494.51   0.004313   21.80  0.000901  ( 0.000013  0.000178  0.030011)
 64:   1648.62   0.000383    1.93  0.000072  (-0.000001  0.000008  0.008510)
 65:   3066.54   0.009170   46.34  0.000933  (-0.000509 -0.030542  0.000328)
 66:   3066.55   0.002023   10.22  0.000206  (-0.000169 -0.014344 -0.000185)
 67:   3069.21   0.001697    8.58  0.000173  (-0.013106  0.000693  0.000548)
 68:   3069.30   0.002746   13.88  0.000279  (-0.000432 -0.000191 -0.016701)
 69:   3108.06   0.004077   20.60  0.000409  ( 0.020228 -0.000153 -0.000396)
 70:   3108.21   0.004967   25.10  0.000499  (-0.000357 -0.000117 -0.022328)
 71:   3171.80   0.007183   36.30  0.000707  ( 0.000470 -0.026572 -0.000688)
 72:   3171.82   0.000315    1.59  0.000031  (-0.000212 -0.005496  0.000856)
 73:   3172.77   0.001345    6.80  0.000132  ( 0.011374  0.000734 -0.001536)
 74:   3172.80   0.011172   56.46  0.001099  ( 0.000518 -0.000331  0.033142)
 75:   3173.99   0.000022    0.11  0.000002  ( 0.000778 -0.000446  0.001186)
 76:   3174.01   0.000011    0.05  0.000001  (-0.000577  0.000471  0.000697)
 77:   3177.36   0.018994   95.99  0.001866  (-0.043189  0.000160 -0.000480)
 78:   3177.58   0.002009   10.15  0.000197  (-0.001461  0.000097  0.013971)
 79:   3281.50   0.001340    6.77  0.000127  ( 0.011287 -0.000101 -0.000001)
 80:   3302.41   0.000134    0.68  0.000013  (-0.000002 -0.000036 -0.003553)

--------------------------
THERMOCHEMISTRY AT 298.15K
--------------------------

Temperature         ... 298.15 K
Pressure            ... 1.00 atm
Total Mass          ... 152.24 AMU

Throughout the following assumptions are being made:
  (1) The electronic state is orbitally nondegenerate
  (2) There are no thermally accessible electronically excited states
  (3) Hindered rotations indicated by low frequency modes are not
      treated as such but are treated as vibrations and this may
      cause some error
  (4) All equations used are the standard statistical mechanics
      equations for an ideal gas
  (5) All vibrations are strictly harmonic

freq.      41.02  E(vib)   ...       0.54
freq.      53.20  E(vib)   ...       0.52
freq.      89.82  E(vib)   ...       0.47
freq.     149.72  E(vib)   ...       0.40
freq.     175.46  E(vib)   ...       0.38
freq.     259.54  E(vib)   ...       0.30
freq.     259.96  E(vib)   ...       0.30
freq.     276.28  E(vib)   ...       0.28
freq.     290.07  E(vib)   ...       0.27
freq.     317.05  E(vib)   ...       0.25
freq.     330.64  E(vib)   ...       0.24
freq.     346.55  E(vib)   ...       0.23
freq.     403.74  E(vib)   ...       0.19
freq.     456.49  E(vib)   ...       0.16
freq.     487.67  E(vib)   ...       0.15
freq.     529.89  E(vib)   ...       0.13
freq.     614.72  E(vib)   ...       0.10
freq.     670.67  E(vib)   ...       0.08
freq.     683.30  E(vib)   ...       0.08
freq.     723.08  E(vib)   ...       0.07
freq.     743.69  E(vib)   ...       0.06
freq.     875.55  E(vib)   ...       0.04
freq.     911.55  E(vib)   ...       0.03
freq.     922.07  E(vib)   ...       0.03
freq.     934.20  E(vib)   ...       0.03
freq.     934.42  E(vib)   ...       0.03
freq.     963.37  E(vib)   ...       0.03
freq.     964.05  E(vib)   ...       0.03
freq.    1012.39  E(vib)   ...       0.02
freq.    1024.03  E(vib)   ...       0.02
freq.    1088.96  E(vib)   ...       0.02
freq.    1119.62  E(vib)   ...       0.01
freq.    1145.84  E(vib)   ...       0.01
freq.    1160.91  E(vib)   ...       0.01
freq.    1171.29  E(vib)   ...       0.01
freq.    1171.37  E(vib)   ...       0.01
freq.    1191.09  E(vib)   ...       0.01
freq.    1226.42  E(vib)   ...       0.01
freq.    1327.17  E(vib)   ...       0.01
freq.    1333.41  E(vib)   ...       0.01
freq.    1349.42  E(vib)   ...       0.01
freq.    1349.44  E(vib)   ...       0.01
freq.    1394.73  E(vib)   ...       0.00
freq.    1395.85  E(vib)   ...       0.00
freq.    1402.03  E(vib)   ...       0.00
freq.    1402.12  E(vib)   ...       0.00
freq.    1414.10  E(vib)   ...       0.00
freq.    1435.30  E(vib)   ...       0.00
freq.    1447.84  E(vib)   ...       0.00
freq.    1447.86  E(vib)   ...       0.00
freq.    1452.42  E(vib)   ...       0.00
freq.    1455.56  E(vib)   ...       0.00
freq.    1455.58  E(vib)   ...       0.00
freq.    1458.57  E(vib)   ...       0.00
freq.    1468.77  E(vib)   ...       0.00
freq.    1475.10  E(vib)   ...       0.00
freq.    1483.51  E(vib)   ...       0.00
freq.    1494.51  E(vib)   ...       0.00
freq.    1648.62  E(vib)   ...       0.00
freq.    3066.54  E(vib)   ...       0.00
freq.    3066.55  E(vib)   ...       0.00
freq.    3069.21  E(vib)   ...       0.00
freq.    3069.30  E(vib)   ...       0.00
freq.    3108.06  E(vib)   ...       0.00
freq.    3108.21  E(vib)   ...       0.00
freq.    3171.80  E(vib)   ...       0.00
freq.    3171.82  E(vib)   ...       0.00
freq.    3172.77  E(vib)   ...       0.00
freq.    3172.80  E(vib)   ...       0.00
freq.    3173.99  E(vib)   ...       0.00
freq.    3174.01  E(vib)   ...       0.00
freq.    3177.36  E(vib)   ...       0.00
freq.    3177.58  E(vib)   ...       0.00
freq.    3281.50  E(vib)   ...       0.00
freq.    3302.41  E(vib)   ...       0.00

------------
INNER ENERGY
------------

The inner energy is: U= E(el) + E(ZPE) + E(vib) + E(rot) + E(trans)
    E(el)   - is the total energy from the electronic structure calculation
              = E(kin-el) + E(nuc-el) + E(el-el) + E(nuc-nuc)
    E(ZPE)  - the the zero temperature vibrational energy from the frequency calculation
    E(vib)  - the the finite temperature correction to E(ZPE) due to population
              of excited vibrational states
    E(rot)  - is the rotational thermal energy
    E(trans)- is the translational thermal energy

Summary of contributions to the inner energy U:
Electronic energy                ...   -461.63188510 Eh
Zero point energy                ...      0.24211331 Eh     151.93 kcal/mol
Thermal vibrational correction   ...      0.00896425 Eh       5.63 kcal/mol
Thermal rotational correction    ...      0.00141627 Eh       0.89 kcal/mol
Thermal translational correction ...      0.00141627 Eh       0.89 kcal/mol
-----------------------------------------------------------------------
Total thermal energy                   -461.37797500 Eh

Summary of corrections to the electronic energy:
(perhaps to be used in another calculation)
Total thermal correction                  0.01179679 Eh       7.40 kcal/mol
Non-thermal (ZPE) correction              0.24211331 Eh     151.93 kcal/mol
-----------------------------------------------------------------------
Total correction                          0.25391010 Eh     159.33 kcal/mol

--------
ENTHALPY
--------

The enthalpy is H = U + kB*T
                kB is Boltzmann's constant
Total free energy                 ...   -461.37797500 Eh
Thermal Enthalpy correction       ...      0.00094421 Eh       0.59 kcal/mol
-----------------------------------------------------------------------
Total Enthalpy                    ...   -461.37703079 Eh

Note: Only C1 symmetry has been detected, increase convergence thresholds
      if your molecule has a higher symmetry. Symmetry factor of 1.0 is
      used for the rotational entropy correction.

Note: Rotational entropy computed according to Herzberg
Infrared and Raman Spectra, Chapter V,1, Van Nostrand Reinhold, 1945
Point Group:  C1, Symmetry Number:   1
Rotational constants in cm-1:     0.066669     0.021084     0.020231

Vibrational entropy computed according to the QRRHO of S. Grimme
Chem.Eur.J. 2012 18 9955

-------
ENTROPY
-------

The entropy contributions are T*S = T*(S(el)+S(vib)+S(rot)+S(trans))
     S(el)   - electronic entropy
     S(vib)  - vibrational entropy
     S(rot)  - rotational entropy
     S(trans)- translational entropy
The entropies will be listed as multiplied by the temperature to get
units of energy

                             ****ORCA TERMINATED NORMALLY****
TOTAL RUN TIME: 0 days 1 hours 40 minutes 54 seconds 294 msec
