                         Program Version 5.0.4 -  RELEASE  -
|  1> # ORCA 5.0.4 - /users/bwb16179/postgrad/2024_03/DFT_Crest_Conformers/Opt/deprot/4_deprot_aq_8.inp # write input file
|  2> # Basic Mode
|  3> #
|  4> ! Opt Freq wB97X Def2-SVP D4 SlowConv TightSCF Defgrid2 Def2/J RIJCOSX CPCM(Water)
|  5>
|  6>
|  7>
|  8> %maxcore 4500
|  9>
| 10> %geom
| 11> Maxiter 150
| 12> END
| 13>
| 14> * xyzfile 0 1 4_deprot_aq_8.xyz
| 15>
| 16>                          ****END OF INPUT****
 Total Charge           Charge          ....    0
 Multiplicity           Mult            ....    1
 Number of Electrons    NEL             ....   84
Dispersion correction           -0.004124366
FINAL SINGLE POINT ENERGY      -461.625277803975
Dispersion correction            ... Starting D4
Dispersion correction           -0.004096026
FINAL SINGLE POINT ENERGY      -461.628958109773
Dispersion correction            ... Starting D4
Dispersion correction           -0.004094075
FINAL SINGLE POINT ENERGY      -461.629242304031
Dispersion correction            ... Starting D4
FINAL SINGLE POINT ENERGY      -461.629421197198
FINAL SINGLE POINT ENERGY      -461.629539635187
FINAL SINGLE POINT ENERGY      -461.629781123916
FINAL SINGLE POINT ENERGY      -461.630160925395
FINAL SINGLE POINT ENERGY      -461.630533891310
FINAL SINGLE POINT ENERGY      -461.630874428785
FINAL SINGLE POINT ENERGY      -461.631388840213
FINAL SINGLE POINT ENERGY      -461.631635533256
FINAL SINGLE POINT ENERGY      -461.631647896929
FINAL SINGLE POINT ENERGY      -461.631654644297
FINAL SINGLE POINT ENERGY      -461.631655803257
FINAL SINGLE POINT ENERGY      -461.631654501442
FINAL SINGLE POINT ENERGY      -461.631652980112
FINAL SINGLE POINT ENERGY      -461.631653517301
Dispersion correction           -0.004103984
FINAL SINGLE POINT ENERGY      -461.631655249082
Dispersion correction            ... Starting D4
Dispersion correction           -0.004103925
FINAL SINGLE POINT ENERGY      -461.631656534967
Dispersion correction            ... Starting D4
                    ***********************HURRAY********************

CARTESIAN COORDINATES (ANGSTROEM)
---------------------------------
  N     -1.060710   -0.031555    0.094345
  C      0.014515   -0.060123    0.922987
  N      1.063448   -0.155988    0.061548
  C      0.655343   -0.159195   -1.263075
  C     -0.698628   -0.085819   -1.242133
  C     -2.443909    0.065570    0.567360
  C      2.458225   -0.121336    0.522950
  C     -3.105976    1.340905    0.055851
  H     -2.353800    0.128607    1.662176
  C     -3.235574   -1.187030    0.207202
  H      2.457920   -0.678081    1.472906
  C      2.896050    1.313766    0.797614
  C      3.393725   -0.829449   -0.447576
  H      1.339320   -0.230485   -2.105965
  H     -1.418385   -0.081895   -2.059521
  H     -2.738521   -2.088257    0.597491
  H     -3.338361   -1.290942   -0.885331
  H     -4.245352   -1.132975    0.641156
  H     -2.502258    2.223434    0.317570
  H     -4.103097    1.456054    0.506643
  H     -3.227247    1.314320   -1.039387
  H      3.071378   -1.865808   -0.631448
  H      4.408796   -0.850004   -0.024951
  H      3.448457   -0.303344   -1.413823
  H      2.910302    1.898832   -0.137051
  H      3.907409    1.328803    1.231415
  H      2.203281    1.799326    1.500912

 Multiplicity           Mult            ....    1
 Number of Electrons    NEL             ....   84
 Basis Dimension        Dim             ....  234

ORBITAL ENERGIES
----------------

  NO   OCC          E(Eh)            E(eV)
   0   2.0000     -14.447019      -393.1234
   1   2.0000     -14.446506      -393.1094
   2   2.0000     -10.309124      -280.5255
   3   2.0000     -10.308360      -280.5047
   4   2.0000     -10.294575      -280.1296
   5   2.0000     -10.293117      -280.0899
   6   2.0000     -10.275773      -279.6180
   7   2.0000     -10.264485      -279.3108
   8   2.0000     -10.262770      -279.2642
   9   2.0000     -10.262679      -279.2617
  10   2.0000     -10.260967      -279.2151
  11   2.0000      -1.146868       -31.2079
  12   2.0000      -1.040062       -28.3015
  13   2.0000      -0.934648       -25.4331
  14   2.0000      -0.883043       -24.0288
  15   2.0000      -0.865293       -23.5458
  16   2.0000      -0.808304       -21.9951
  17   2.0000      -0.807706       -21.9788
  18   2.0000      -0.758917       -20.6512
  19   2.0000      -0.743801       -20.2399
  20   2.0000      -0.672984       -18.3128
  21   2.0000      -0.662172       -18.0186
  22   2.0000      -0.624718       -16.9994
  23   2.0000      -0.590985       -16.0815
  24   2.0000      -0.573308       -15.6005
  25   2.0000      -0.558973       -15.2104
  26   2.0000      -0.557349       -15.1662
  27   2.0000      -0.541160       -14.7257
  28   2.0000      -0.528408       -14.3787
  29   2.0000      -0.520666       -14.1680
  30   2.0000      -0.498819       -13.5736
  31   2.0000      -0.490303       -13.3418
  32   2.0000      -0.487182       -13.2569
  33   2.0000      -0.480708       -13.0807
  34   2.0000      -0.465929       -12.6786
  35   2.0000      -0.456332       -12.4174
  36   2.0000      -0.446428       -12.1479
  37   2.0000      -0.441450       -12.0125
  38   2.0000      -0.434711       -11.8291
  39   2.0000      -0.370594       -10.0844
  40   2.0000      -0.324637        -8.8338
  41   2.0000      -0.323297        -8.7974
  42   0.0000       0.124413         3.3854
  43   0.0000       0.125433         3.4132
  44   0.0000       0.151192         4.1141
  45   0.0000       0.153210         4.1690
  46   0.0000       0.179915         4.8957

MULLIKEN ATOMIC CHARGES
-----------------------
   0 N :   -0.211162
   1 C :   -0.207818
   2 N :   -0.226387
   3 C :    0.018388
   4 C :    0.013319
   5 C :   -0.003088
   6 C :    0.010981
   7 C :   -0.016240
   8 H :    0.028450
   9 C :   -0.011997
  10 H :    0.031558
  11 C :   -0.002695
  12 C :   -0.036457
  13 H :    0.058927
  14 H :    0.065751
  15 H :    0.039629
  16 H :    0.034980
  17 H :    0.046027
  18 H :    0.040102
  19 H :    0.047133
  20 H :    0.035565
  21 H :    0.047014
  22 H :    0.049795
  23 H :    0.043286
  24 H :    0.031239
  25 H :    0.043236
  26 H :    0.030464
Sum of atomic charges:   -0.0000000

LOEWDIN ATOMIC CHARGES
----------------------
   0 N :    0.034872
   1 C :   -0.318884
   2 N :    0.027653
   3 C :   -0.035207
   4 C :   -0.039159
   5 C :    0.027484
   6 C :    0.030092
   7 C :   -0.061645
   8 H :    0.028343
   9 C :   -0.061533
  10 H :    0.029572
  11 C :   -0.060829
  12 C :   -0.061592
  13 H :    0.039573
  14 H :    0.039775
  15 H :    0.030560
  16 H :    0.028763
  17 H :    0.036246
  18 H :    0.030783
  19 H :    0.036522
  20 H :    0.028759
  21 H :    0.032639
  22 H :    0.039362
  23 H :    0.029889
  24 H :    0.028235
  25 H :    0.034247
  26 H :    0.025481

  Mayer bond orders larger than 0.100000
B(  0-N ,  1-C ) :   1.2520 B(  0-N ,  4-C ) :   1.1242 B(  0-N ,  5-C ) :   0.9097
B(  1-C ,  2-N ) :   1.2379 B(  2-N ,  3-C ) :   1.1310 B(  2-N ,  6-C ) :   0.9019
B(  3-C ,  4-C ) :   1.6227 B(  3-C , 13-H ) :   0.9894 B(  4-C , 14-H ) :   0.9871
B(  5-C ,  7-C ) :   1.0713 B(  5-C ,  8-H ) :   0.9329 B(  5-C ,  9-C ) :   1.0708
B(  6-C , 10-H ) :   0.9371 B(  6-C , 11-C ) :   1.0717 B(  6-C , 12-C ) :   1.0742
B(  7-C , 18-H ) :   0.9684 B(  7-C , 19-H ) :   0.9716 B(  7-C , 20-H ) :   0.9645
B(  9-C , 15-H ) :   0.9683 B(  9-C , 16-H ) :   0.9644 B(  9-C , 17-H ) :   0.9720
B( 11-C , 24-H ) :   0.9651 B( 11-C , 25-H ) :   0.9721 B( 11-C , 26-H ) :   0.9655
B( 12-C , 21-H ) :   0.9691 B( 12-C , 22-H ) :   0.9679 B( 12-C , 23-H ) :   0.9616

Dispersion correction           -0.004103943
FINAL SINGLE POINT ENERGY      -461.631656566476

DIPOLE MOMENT
-------------
                                X             Y             Z
Electronic contribution:      0.06708      -1.29813      -0.71140
Nuclear contribution   :     -0.07638       1.29462      -0.66620
                        -----------------------------------------
Total Dipole Moment    :     -0.00930      -0.00351      -1.37760
                        -----------------------------------------
Magnitude (a.u.)       :      1.37764
Magnitude (Debye)      :      3.50168

Dispersion correction in the Hessian             ... Starting D4

VIBRATIONAL FREQUENCIES
-----------------------

Scaling factor for frequencies =  1.000000000  (already applied!)

   0:         0.00 cm**-1
   1:         0.00 cm**-1
   2:         0.00 cm**-1
   3:         0.00 cm**-1
   4:         0.00 cm**-1
   5:         0.00 cm**-1
   6:       -27.21 cm**-1 ***imaginary mode***
   7:        29.96 cm**-1
   8:       107.67 cm**-1
   9:       157.86 cm**-1
  10:       169.61 cm**-1
  11:       243.90 cm**-1
  12:       249.76 cm**-1
  13:       270.97 cm**-1
  14:       286.19 cm**-1
  15:       290.48 cm**-1
  16:       317.22 cm**-1
  17:       354.34 cm**-1
  18:       408.03 cm**-1
  19:       445.48 cm**-1
  20:       458.48 cm**-1
  21:       568.30 cm**-1
  22:       633.62 cm**-1
  23:       674.04 cm**-1
  24:       678.25 cm**-1
  25:       690.75 cm**-1
  26:       744.44 cm**-1
  27:       881.76 cm**-1
  28:       907.46 cm**-1
  29:       910.43 cm**-1
  30:       924.42 cm**-1
  31:       935.47 cm**-1
  32:       957.81 cm**-1
  33:       960.14 cm**-1
  34:      1019.15 cm**-1
  35:      1028.81 cm**-1
  36:      1077.83 cm**-1
  37:      1096.25 cm**-1
  38:      1106.71 cm**-1
  39:      1165.27 cm**-1
  40:      1168.72 cm**-1
  41:      1185.41 cm**-1
  42:      1193.29 cm**-1
  43:      1249.70 cm**-1
  44:      1321.97 cm**-1
  45:      1326.76 cm**-1
  46:      1349.11 cm**-1
  47:      1350.60 cm**-1
  48:      1389.85 cm**-1
  49:      1395.24 cm**-1
  50:      1397.49 cm**-1
  51:      1401.78 cm**-1
  52:      1407.79 cm**-1
  53:      1417.32 cm**-1
  54:      1441.79 cm**-1
  55:      1445.87 cm**-1
  56:      1447.52 cm**-1
  57:      1455.90 cm**-1
  58:      1457.27 cm**-1
  59:      1459.99 cm**-1
  60:      1464.31 cm**-1
  61:      1472.69 cm**-1
  62:      1478.37 cm**-1
  63:      1487.32 cm**-1
  64:      1652.13 cm**-1
  65:      3059.91 cm**-1
  66:      3062.00 cm**-1
  67:      3064.38 cm**-1
  68:      3068.62 cm**-1
  69:      3116.04 cm**-1
  70:      3127.59 cm**-1
  71:      3161.62 cm**-1
  72:      3162.23 cm**-1
  73:      3165.79 cm**-1
  74:      3167.38 cm**-1
  75:      3174.69 cm**-1
  76:      3176.61 cm**-1
  77:      3177.62 cm**-1
  78:      3179.66 cm**-1
  79:      3286.81 cm**-1
  80:      3310.31 cm**-1

IR SPECTRUM
-----------

 Mode   freq       eps      Int      T**2         TX        TY        TZ
       cm**-1   L/(mol*cm) km/mol    a.u.
----------------------------------------------------------------------------
  7:     29.96   0.000023    0.11  0.000237  ( 0.001404  0.015328 -0.000198)
  8:    107.67   0.003556   17.97  0.010308  ( 0.001879 -0.101502  0.001301)
  9:    157.86   0.000267    1.35  0.000528  (-0.003305 -0.014231  0.017738)
 10:    169.61   0.000368    1.86  0.000676  (-0.005055  0.006203 -0.024742)
 11:    243.90   0.000061    0.31  0.000078  (-0.007758 -0.004249  0.000382)
 12:    249.76   0.000090    0.45  0.000112  ( 0.008525 -0.005020  0.003752)
 13:    270.97   0.000123    0.62  0.000141  ( 0.009290  0.007303 -0.001278)
 14:    286.19   0.000043    0.22  0.000047  (-0.002617 -0.006312 -0.000075)
 15:    290.48   0.000029    0.15  0.000031  ( 0.003655  0.004234 -0.000243)
 16:    317.22   0.000916    4.63  0.000901  ( 0.029493  0.005601  0.000307)
 17:    354.34   0.000766    3.87  0.000674  (-0.018749 -0.017943 -0.000912)
 18:    408.03   0.003617   18.28  0.002766  (-0.010019  0.051504  0.003654)
 19:    445.48   0.000216    1.09  0.000151  (-0.010543 -0.005359  0.003343)
 20:    458.48   0.000054    0.27  0.000037  ( 0.001675  0.000231 -0.005835)
 21:    568.30   0.003906   19.74  0.002145  (-0.046062  0.003391  0.003428)
 22:    633.62   0.000138    0.70  0.000068  (-0.003414 -0.003713 -0.006531)
 23:    674.04   0.000640    3.23  0.000296  ( 0.003761 -0.016479 -0.003251)
 24:    678.25   0.001610    8.13  0.000741  (-0.007868 -0.026014  0.001379)
 25:    690.75   0.002337   11.81  0.001056  ( 0.032228 -0.003998 -0.001059)
 26:    744.44   0.014075   71.13  0.005900  (-0.007069 -0.076222  0.006369)
 27:    881.76   0.000070    0.35  0.000025  (-0.004796 -0.000997  0.000866)
 28:    907.46   0.001585    8.01  0.000545  (-0.022982  0.004037 -0.000834)
 29:    910.43   0.000708    3.58  0.000243  ( 0.006173  0.002060 -0.014158)
 30:    924.42   0.000427    2.16  0.000144  ( 0.003486 -0.010753 -0.004027)
 31:    935.47   0.000320    1.62  0.000107  (-0.001165  0.010240  0.000739)
 32:    957.81   0.000232    1.17  0.000075  ( 0.006103 -0.003727 -0.004934)
 33:    960.14   0.000121    0.61  0.000039  ( 0.001793 -0.005946 -0.000819)
 34:   1019.15   0.002879   14.55  0.000882  ( 0.029535  0.000301  0.003034)
 35:   1028.81   0.000216    1.09  0.000066  (-0.004117  0.000865  0.006925)
 36:   1077.83   0.000249    1.26  0.000072  (-0.007721  0.002721 -0.002228)
 37:   1096.25   0.002869   14.50  0.000817  ( 0.000648 -0.004062 -0.028283)
 38:   1106.71   0.004087   20.65  0.001152  (-0.002249 -0.000727  0.033863)
 39:   1165.27   0.001844    9.32  0.000494  (-0.012049  0.018472  0.002721)
 40:   1168.72   0.002260   11.42  0.000603  ( 0.000457  0.024530 -0.001221)
 41:   1185.41   0.000399    2.02  0.000105  (-0.002804  0.009102 -0.003785)
 42:   1193.29   0.000052    0.26  0.000014  (-0.003189 -0.001295 -0.001365)
 43:   1249.70   0.032655  165.03  0.008154  ( 0.090285 -0.000898  0.001505)
 44:   1321.97   0.005337   26.97  0.001260  (-0.035324 -0.001700 -0.003034)
 45:   1326.76   0.000404    2.04  0.000095  ( 0.005835 -0.003169 -0.007143)
 46:   1349.11   0.000086    0.43  0.000020  ( 0.000488  0.004428 -0.000232)
 47:   1350.60   0.000156    0.79  0.000036  ( 0.005445  0.001185  0.002213)
 48:   1389.85   0.000588    2.97  0.000132  ( 0.006243 -0.008672  0.004234)
 49:   1395.24   0.004666   23.58  0.001044  ( 0.011433  0.027693  0.012082)
 50:   1397.49   0.002338   11.82  0.000522  ( 0.005939  0.021241  0.005971)
 51:   1401.78   0.003719   18.79  0.000828  ( 0.003970  0.028168 -0.004331)
 52:   1407.79   0.004753   24.02  0.001054  (-0.026221 -0.000008 -0.019130)
 53:   1417.32   0.014744   74.51  0.003246  ( 0.054178 -0.003944 -0.017187)
 54:   1441.79   0.005036   25.45  0.001090  ( 0.004111  0.001858  0.032704)
 55:   1445.87   0.000198    1.00  0.000043  (-0.003422  0.005455 -0.001144)
 56:   1447.52   0.000162    0.82  0.000035  (-0.001338  0.000160 -0.005759)
 57:   1455.90   0.000329    1.66  0.000070  ( 0.007940 -0.002299 -0.001459)
 58:   1457.27   0.001183    5.98  0.000253  ( 0.008416 -0.012949  0.003850)
 59:   1459.99   0.002351   11.88  0.000502  (-0.006301  0.010542 -0.018752)
 60:   1464.31   0.001844    9.32  0.000393  ( 0.004468 -0.000300 -0.019314)
 61:   1472.69   0.002234   11.29  0.000473  (-0.020920  0.000265  0.005973)
 62:   1478.37   0.002044   10.33  0.000431  (-0.017031 -0.002359  0.011653)
 63:   1487.32   0.019529   98.69  0.004097  ( 0.063589  0.001076  0.007258)
 64:   1652.13   0.000063    0.32  0.000012  (-0.000083  0.000613  0.003400)
 65:   3059.91   0.004151   20.98  0.000423  ( 0.006581  0.019395  0.001972)
 66:   3062.00   0.004902   24.77  0.000500  ( 0.002562  0.022201 -0.000385)
 67:   3064.38   0.002616   13.22  0.000266  (-0.012850  0.002403 -0.009774)
 68:   3068.62   0.003357   16.97  0.000341  (-0.010651  0.006139  0.013794)
 69:   3116.04   0.003007   15.20  0.000301  (-0.005490  0.009777 -0.013245)
 70:   3127.59   0.001250    6.32  0.000125  ( 0.003838 -0.001086 -0.010434)
 71:   3161.62   0.003656   18.48  0.000361  ( 0.003854 -0.000785  0.018585)
 72:   3162.23   0.001694    8.56  0.000167  ( 0.001701  0.012636 -0.002134)
 73:   3165.79   0.009009   45.53  0.000888  (-0.000754 -0.003031 -0.029636)
 74:   3167.38   0.007764   39.24  0.000765  ( 0.002656 -0.018889  0.020027)
 75:   3174.69   0.002184   11.04  0.000215  ( 0.004004 -0.014089  0.000370)
 76:   3176.61   0.007532   38.07  0.000740  (-0.025644 -0.000156  0.009072)
 77:   3177.62   0.002910   14.71  0.000286  ( 0.013508 -0.008631 -0.005371)
 78:   3179.66   0.005815   29.39  0.000571  (-0.021454 -0.004737 -0.009381)
 79:   3286.81   0.001427    7.21  0.000136  (-0.011499  0.000429 -0.001767)
 80:   3310.31   0.000296    1.50  0.000028  (-0.003549  0.000569  0.003870)

--------------------------
THERMOCHEMISTRY AT 298.15K
--------------------------

Temperature         ... 298.15 K
Pressure            ... 1.00 atm
Total Mass          ... 152.24 AMU

Throughout the following assumptions are being made:
  (1) The electronic state is orbitally nondegenerate
  (2) There are no thermally accessible electronically excited states
  (3) Hindered rotations indicated by low frequency modes are not
      treated as such but are treated as vibrations and this may
      cause some error
  (4) All equations used are the standard statistical mechanics
      equations for an ideal gas
  (5) All vibrations are strictly harmonic

freq.      29.96  E(vib)   ...       0.55
freq.     107.67  E(vib)   ...       0.45
freq.     157.86  E(vib)   ...       0.40
freq.     169.61  E(vib)   ...       0.38
freq.     243.90  E(vib)   ...       0.31
freq.     249.76  E(vib)   ...       0.31
freq.     270.97  E(vib)   ...       0.29
freq.     286.19  E(vib)   ...       0.27
freq.     290.48  E(vib)   ...       0.27
freq.     317.22  E(vib)   ...       0.25
freq.     354.34  E(vib)   ...       0.22
freq.     408.03  E(vib)   ...       0.19
freq.     445.48  E(vib)   ...       0.17
freq.     458.48  E(vib)   ...       0.16
freq.     568.30  E(vib)   ...       0.11
freq.     633.62  E(vib)   ...       0.09
freq.     674.04  E(vib)   ...       0.08
freq.     678.25  E(vib)   ...       0.08
freq.     690.75  E(vib)   ...       0.07
freq.     744.44  E(vib)   ...       0.06
freq.     881.76  E(vib)   ...       0.04
freq.     907.46  E(vib)   ...       0.03
freq.     910.43  E(vib)   ...       0.03
freq.     924.42  E(vib)   ...       0.03
freq.     935.47  E(vib)   ...       0.03
freq.     957.81  E(vib)   ...       0.03
freq.     960.14  E(vib)   ...       0.03
freq.    1019.15  E(vib)   ...       0.02
freq.    1028.81  E(vib)   ...       0.02
freq.    1077.83  E(vib)   ...       0.02
freq.    1096.25  E(vib)   ...       0.02
freq.    1106.71  E(vib)   ...       0.02
freq.    1165.27  E(vib)   ...       0.01
freq.    1168.72  E(vib)   ...       0.01
freq.    1185.41  E(vib)   ...       0.01
freq.    1193.29  E(vib)   ...       0.01
freq.    1249.70  E(vib)   ...       0.01
freq.    1321.97  E(vib)   ...       0.01
freq.    1326.76  E(vib)   ...       0.01
freq.    1349.11  E(vib)   ...       0.01
freq.    1350.60  E(vib)   ...       0.01
freq.    1389.85  E(vib)   ...       0.00
freq.    1395.24  E(vib)   ...       0.00
freq.    1397.49  E(vib)   ...       0.00
freq.    1401.78  E(vib)   ...       0.00
freq.    1407.79  E(vib)   ...       0.00
freq.    1417.32  E(vib)   ...       0.00
freq.    1441.79  E(vib)   ...       0.00
freq.    1445.87  E(vib)   ...       0.00
freq.    1447.52  E(vib)   ...       0.00
freq.    1455.90  E(vib)   ...       0.00
freq.    1457.27  E(vib)   ...       0.00
freq.    1459.99  E(vib)   ...       0.00
freq.    1464.31  E(vib)   ...       0.00
freq.    1472.69  E(vib)   ...       0.00
freq.    1478.37  E(vib)   ...       0.00
freq.    1487.32  E(vib)   ...       0.00
freq.    1652.13  E(vib)   ...       0.00
freq.    3059.91  E(vib)   ...       0.00
freq.    3062.00  E(vib)   ...       0.00
freq.    3064.38  E(vib)   ...       0.00
freq.    3068.62  E(vib)   ...       0.00
freq.    3116.04  E(vib)   ...       0.00
freq.    3127.59  E(vib)   ...       0.00
freq.    3161.62  E(vib)   ...       0.00
freq.    3162.23  E(vib)   ...       0.00
freq.    3165.79  E(vib)   ...       0.00
freq.    3167.38  E(vib)   ...       0.00
freq.    3174.69  E(vib)   ...       0.00
freq.    3176.61  E(vib)   ...       0.00
freq.    3177.62  E(vib)   ...       0.00
freq.    3179.66  E(vib)   ...       0.00
freq.    3286.81  E(vib)   ...       0.00
freq.    3310.31  E(vib)   ...       0.00

------------
INNER ENERGY
------------

The inner energy is: U= E(el) + E(ZPE) + E(vib) + E(rot) + E(trans)
    E(el)   - is the total energy from the electronic structure calculation
              = E(kin-el) + E(nuc-el) + E(el-el) + E(nuc-nuc)
    E(ZPE)  - the the zero temperature vibrational energy from the frequency calculation
    E(vib)  - the the finite temperature correction to E(ZPE) due to population
              of excited vibrational states
    E(rot)  - is the rotational thermal energy
    E(trans)- is the translational thermal energy

Summary of contributions to the inner energy U:
Electronic energy                ...   -461.63165657 Eh
Zero point energy                ...      0.24155475 Eh     151.58 kcal/mol
Thermal vibrational correction   ...      0.00822644 Eh       5.16 kcal/mol
Thermal rotational correction    ...      0.00141627 Eh       0.89 kcal/mol
Thermal translational correction ...      0.00141627 Eh       0.89 kcal/mol
-----------------------------------------------------------------------
Total thermal energy                   -461.37904283 Eh

Summary of corrections to the electronic energy:
(perhaps to be used in another calculation)
Total thermal correction                  0.01105899 Eh       6.94 kcal/mol
Non-thermal (ZPE) correction              0.24155475 Eh     151.58 kcal/mol
-----------------------------------------------------------------------
Total correction                          0.25261374 Eh     158.52 kcal/mol

--------
ENTHALPY
--------

The enthalpy is H = U + kB*T
                kB is Boltzmann's constant
Total free energy                 ...   -461.37904283 Eh
Thermal Enthalpy correction       ...      0.00094421 Eh       0.59 kcal/mol
-----------------------------------------------------------------------
Total Enthalpy                    ...   -461.37809862 Eh

Note: Only C1 symmetry has been detected, increase convergence thresholds
      if your molecule has a higher symmetry. Symmetry factor of 1.0 is
      used for the rotational entropy correction.

Note: Rotational entropy computed according to Herzberg
Infrared and Raman Spectra, Chapter V,1, Van Nostrand Reinhold, 1945
Point Group:  C1, Symmetry Number:   1
Rotational constants in cm-1:     0.090137     0.018847     0.017931

Vibrational entropy computed according to the QRRHO of S. Grimme
Chem.Eur.J. 2012 18 9955

-------
ENTROPY
-------

The entropy contributions are T*S = T*(S(el)+S(vib)+S(rot)+S(trans))
     S(el)   - electronic entropy
     S(vib)  - vibrational entropy
     S(rot)  - rotational entropy
     S(trans)- translational entropy
The entropies will be listed as multiplied by the temperature to get
units of energy

                             ****ORCA TERMINATED NORMALLY****
TOTAL RUN TIME: 0 days 3 hours 17 minutes 15 seconds 593 msec
