                         Program Version 5.0.4 -  RELEASE  -
|  1> # ORCA 5.0.4 - /users/bwb16179/postgrad/2024_03/DFT_Crest_Conformers/Opt/deprot/4_deprot_aq_1.inp # write input file
|  2> # Basic Mode
|  3> #
|  4> ! Opt Freq wB97X Def2-SVP D4 SlowConv TightSCF Defgrid2 Def2/J RIJCOSX CPCM(Water)
|  5>
|  6>
|  7>
|  8> %maxcore 4500
|  9>
| 10> %geom
| 11> Maxiter 150
| 12> END
| 13>
| 14> * xyzfile 0 1 4_deprot_aq_1.xyz
| 15>
| 16>                          ****END OF INPUT****
 Total Charge           Charge          ....    0
 Multiplicity           Mult            ....    1
 Number of Electrons    NEL             ....   84
Dispersion correction           -0.004120978
FINAL SINGLE POINT ENERGY      -461.629708615749
Dispersion correction            ... Starting D4
Dispersion correction           -0.004101748
FINAL SINGLE POINT ENERGY      -461.632723162513
Dispersion correction            ... Starting D4
Dispersion correction           -0.004100052
FINAL SINGLE POINT ENERGY      -461.632880425702
Dispersion correction            ... Starting D4
Dispersion correction           -0.004100004
FINAL SINGLE POINT ENERGY      -461.632924151047
Dispersion correction            ... Starting D4
Dispersion correction           -0.004100357
FINAL SINGLE POINT ENERGY      -461.632928298114
Dispersion correction            ... Starting D4
                    ***********************HURRAY********************

CARTESIAN COORDINATES (ANGSTROEM)
---------------------------------
  N     -1.063229    0.000516    0.084556
  C     -0.000004   -0.001535    0.931707
  N      1.063233    0.000258    0.084571
  C      0.678039    0.003220   -1.246360
  C     -0.678015    0.003373   -1.246369
  C     -2.456584   -0.000885    0.537903
  C      2.456582   -0.001225    0.537935
  C     -3.177611    1.267137    0.093691
  H     -2.381422   -0.002104    1.635716
  C     -3.175795   -1.268936    0.090803
  H      2.381408   -0.003080    1.635747
  C      3.177431    1.267147    0.094434
  C      3.175984   -1.268923    0.090143
  H      1.386051    0.005064   -2.073982
  H     -1.386014    0.005361   -2.074003
  H     -3.263506   -1.311521   -1.007135
  H     -4.192043   -1.295582    0.511809
  H     -2.635565   -2.165281    0.431454
  H     -3.265736    1.312006   -1.004119
  H     -2.638587    2.163518    0.436147
  H     -4.193773    1.291431    0.515040
  H      2.635784   -2.165534    0.430140
  H      4.192158   -1.295728    0.511316
  H      3.263909   -1.310810   -1.007804
  H      3.265412    1.312691   -1.003361
  H      4.193640    1.291301    0.515680
  H      2.638345    2.163260    0.437492

 Multiplicity           Mult            ....    1
 Number of Electrons    NEL             ....   84
 Basis Dimension        Dim             ....  234

ORBITAL ENERGIES
----------------

  NO   OCC          E(Eh)            E(eV)
   0   2.0000     -14.446272      -393.1030
   1   2.0000     -14.446271      -393.1030
   2   2.0000     -10.308345      -280.5043
   3   2.0000     -10.308311      -280.5034
   4   2.0000     -10.294514      -280.1280
   5   2.0000     -10.293935      -280.1122
   6   2.0000     -10.276397      -279.6350
   7   2.0000     -10.262646      -279.2608
   8   2.0000     -10.262642      -279.2607
   9   2.0000     -10.262636      -279.2605
  10   2.0000     -10.262631      -279.2604
  11   2.0000      -1.147147       -31.2155
  12   2.0000      -1.040511       -28.3137
  13   2.0000      -0.934499       -25.4290
  14   2.0000      -0.882345       -24.0098
  15   2.0000      -0.865039       -23.5389
  16   2.0000      -0.808039       -21.9879
  17   2.0000      -0.807646       -21.9772
  18   2.0000      -0.759264       -20.6606
  19   2.0000      -0.745818       -20.2947
  20   2.0000      -0.674277       -18.3480
  21   2.0000      -0.661874       -18.0105
  22   2.0000      -0.622094       -16.9280
  23   2.0000      -0.585678       -15.9371
  24   2.0000      -0.576614       -15.6905
  25   2.0000      -0.558054       -15.1854
  26   2.0000      -0.556902       -15.1541
  27   2.0000      -0.535062       -14.5598
  28   2.0000      -0.533200       -14.5091
  29   2.0000      -0.526214       -14.3190
  30   2.0000      -0.500165       -13.6102
  31   2.0000      -0.491514       -13.3748
  32   2.0000      -0.484376       -13.1805
  33   2.0000      -0.481896       -13.1130
  34   2.0000      -0.465407       -12.6644
  35   2.0000      -0.456085       -12.4107
  36   2.0000      -0.446005       -12.1364
  37   2.0000      -0.440988       -11.9999
  38   2.0000      -0.433132       -11.7861
  39   2.0000      -0.370246       -10.0749
  40   2.0000      -0.324879        -8.8404
  41   2.0000      -0.324675        -8.8348
  42   0.0000       0.123458         3.3595
  43   0.0000       0.130328         3.5464
  44   0.0000       0.150839         4.1045
  45   0.0000       0.151718         4.1285
  46   0.0000       0.179798         4.8926

MULLIKEN ATOMIC CHARGES
-----------------------
   0 N :   -0.213756
   1 C :   -0.214907
   2 N :   -0.213757
   3 C :    0.015036
   4 C :    0.015039
   5 C :   -0.001988
   6 C :   -0.001986
   7 C :   -0.014180
   8 H :    0.028133
   9 C :   -0.014059
  10 H :    0.028134
  11 C :   -0.014146
  12 C :   -0.014092
  13 H :    0.065843
  14 H :    0.065843
  15 H :    0.035019
  16 H :    0.046205
  17 H :    0.039941
  18 H :    0.035050
  19 H :    0.039989
  20 H :    0.046218
  21 H :    0.039951
  22 H :    0.046211
  23 H :    0.035026
  24 H :    0.035043
  25 H :    0.046212
  26 H :    0.039978
Sum of atomic charges:   -0.0000000

LOEWDIN ATOMIC CHARGES
----------------------
   0 N :    0.032044
   1 C :   -0.321889
   2 N :    0.032044
   3 C :   -0.034992
   4 C :   -0.034992
   5 C :    0.027665
   6 C :    0.027665
   7 C :   -0.061734
   8 H :    0.028276
   9 C :   -0.061730
  10 H :    0.028276
  11 C :   -0.061732
  12 C :   -0.061731
  13 H :    0.039944
  14 H :    0.039944
  15 H :    0.028775
  16 H :    0.036269
  17 H :    0.030674
  18 H :    0.028780
  19 H :    0.030689
  20 H :    0.036284
  21 H :    0.030677
  22 H :    0.036273
  23 H :    0.028776
  24 H :    0.028779
  25 H :    0.036280
  26 H :    0.030686

  Mayer bond orders larger than 0.100000
B(  0-N ,  1-C ) :   1.2418 B(  0-N ,  4-C ) :   1.1243 B(  0-N ,  5-C ) :   0.9096
B(  1-C ,  2-N ) :   1.2418 B(  2-N ,  3-C ) :   1.1243 B(  2-N ,  6-C ) :   0.9096
B(  3-C ,  4-C ) :   1.6285 B(  3-C , 13-H ) :   0.9888 B(  4-C , 14-H ) :   0.9888
B(  5-C ,  7-C ) :   1.0713 B(  5-C ,  8-H ) :   0.9325 B(  5-C ,  9-C ) :   1.0714
B(  6-C , 10-H ) :   0.9325 B(  6-C , 11-C ) :   1.0713 B(  6-C , 12-C ) :   1.0714
B(  7-C , 18-H ) :   0.9644 B(  7-C , 19-H ) :   0.9684 B(  7-C , 20-H ) :   0.9718
B(  9-C , 15-H ) :   0.9644 B(  9-C , 16-H ) :   0.9718 B(  9-C , 17-H ) :   0.9683
B( 11-C , 24-H ) :   0.9644 B( 11-C , 25-H ) :   0.9718 B( 11-C , 26-H ) :   0.9684
B( 12-C , 21-H ) :   0.9683 B( 12-C , 22-H ) :   0.9718 B( 12-C , 23-H ) :   0.9644

Dispersion correction           -0.004100584
FINAL SINGLE POINT ENERGY      -461.632929572706

DIPOLE MOMENT
-------------
                                X             Y             Z
Electronic contribution:     -0.00000       0.00731      -0.36840
Nuclear contribution   :      0.00001      -0.00452      -1.02607
                        -----------------------------------------
Total Dipole Moment    :      0.00001       0.00279      -1.39447
                        -----------------------------------------
Magnitude (a.u.)       :      1.39447
Magnitude (Debye)      :      3.54446

Dispersion correction in the Hessian             ... Starting D4

VIBRATIONAL FREQUENCIES
-----------------------

Scaling factor for frequencies =  1.000000000  (already applied!)

   0:         0.00 cm**-1
   1:         0.00 cm**-1
   2:         0.00 cm**-1
   3:         0.00 cm**-1
   4:         0.00 cm**-1
   5:         0.00 cm**-1
   6:        23.04 cm**-1
   7:        27.24 cm**-1
   8:       115.75 cm**-1
   9:       149.13 cm**-1
  10:       159.15 cm**-1
  11:       231.84 cm**-1
  12:       231.95 cm**-1
  13:       251.20 cm**-1
  14:       262.68 cm**-1
  15:       270.27 cm**-1
  16:       299.49 cm**-1
  17:       354.55 cm**-1
  18:       404.06 cm**-1
  19:       444.94 cm**-1
  20:       458.52 cm**-1
  21:       573.88 cm**-1
  22:       635.43 cm**-1
  23:       674.98 cm**-1
  24:       682.73 cm**-1
  25:       689.98 cm**-1
  26:       749.57 cm**-1
  27:       883.49 cm**-1
  28:       907.08 cm**-1
  29:       911.77 cm**-1
  30:       933.05 cm**-1
  31:       933.09 cm**-1
  32:       955.61 cm**-1
  33:       955.73 cm**-1
  34:      1019.73 cm**-1
  35:      1027.03 cm**-1
  36:      1071.62 cm**-1
  37:      1090.51 cm**-1
  38:      1103.44 cm**-1
  39:      1168.20 cm**-1
  40:      1168.25 cm**-1
  41:      1186.99 cm**-1
  42:      1193.20 cm**-1
  43:      1247.55 cm**-1
  44:      1319.67 cm**-1
  45:      1325.00 cm**-1
  46:      1347.74 cm**-1
  47:      1348.07 cm**-1
  48:      1395.11 cm**-1
  49:      1398.15 cm**-1
  50:      1398.84 cm**-1
  51:      1399.14 cm**-1
  52:      1408.99 cm**-1
  53:      1420.52 cm**-1
  54:      1442.56 cm**-1
  55:      1444.92 cm**-1
  56:      1444.93 cm**-1
  57:      1455.55 cm**-1
  58:      1455.57 cm**-1
  59:      1457.50 cm**-1
  60:      1460.97 cm**-1
  61:      1468.89 cm**-1
  62:      1479.20 cm**-1
  63:      1487.06 cm**-1
  64:      1654.33 cm**-1
  65:      3062.77 cm**-1
  66:      3062.78 cm**-1
  67:      3065.14 cm**-1
  68:      3065.28 cm**-1
  69:      3126.80 cm**-1
  70:      3127.02 cm**-1
  71:      3162.07 cm**-1
  72:      3162.08 cm**-1
  73:      3165.91 cm**-1
  74:      3166.01 cm**-1
  75:      3175.47 cm**-1
  76:      3175.47 cm**-1
  77:      3177.19 cm**-1
  78:      3177.23 cm**-1
  79:      3282.40 cm**-1
  80:      3302.88 cm**-1

IR SPECTRUM
-----------

 Mode   freq       eps      Int      T**2         TX        TY        TZ
       cm**-1   L/(mol*cm) km/mol    a.u.
----------------------------------------------------------------------------
  6:     23.04   0.000020    0.10  0.000267  (-0.000004 -0.016337 -0.000131)
  7:     27.24   0.000000    0.00  0.000000  (-0.000009  0.000009  0.000005)
  8:    115.75   0.003730   18.85  0.010055  ( 0.000003  0.100276  0.000249)
  9:    149.13   0.000000    0.00  0.000000  (-0.000003 -0.000005 -0.000017)
 10:    159.15   0.000483    2.44  0.000948  (-0.000001 -0.000068  0.030782)
 11:    231.84   0.000000    0.00  0.000000  ( 0.000027 -0.000303  0.000013)
 12:    231.95   0.000084    0.43  0.000113  ( 0.000037  0.010649  0.000055)
 13:    251.20   0.000102    0.52  0.000127  (-0.011273  0.000016  0.000002)
 14:    262.68   0.000005    0.03  0.000006  (-0.000010 -0.000061 -0.002494)
 15:    270.27   0.000001    0.01  0.000001  (-0.000003 -0.000028  0.001142)
 16:    299.49   0.000964    4.87  0.001005  (-0.031697  0.000007 -0.000000)
 17:    354.55   0.000783    3.96  0.000690  (-0.026258 -0.000025 -0.000000)
 18:    404.06   0.004669   23.59  0.003606  ( 0.000012 -0.060047 -0.000109)
 19:    444.94   0.000000    0.00  0.000000  (-0.000042 -0.000000 -0.000002)
 20:    458.52   0.000036    0.18  0.000025  (-0.000000  0.000014  0.004976)
 21:    573.88   0.003605   18.22  0.001960  ( 0.044277 -0.000008  0.000000)
 22:    635.43   0.000048    0.24  0.000023  ( 0.000000 -0.000096  0.004833)
 23:    674.98   0.002230   11.27  0.001031  (-0.000011  0.032110  0.000073)
 24:    682.73   0.000000    0.00  0.000000  (-0.000036  0.000001  0.000004)
 25:    689.98   0.002206   11.15  0.000998  (-0.031585 -0.000010 -0.000000)
 26:    749.57   0.013667   69.07  0.005690  (-0.000015 -0.075432 -0.000203)
 27:    883.49   0.000000    0.00  0.000000  (-0.000004  0.000001 -0.000001)
 28:    907.08   0.002113   10.68  0.000727  (-0.026964  0.000001  0.000002)
 29:    911.77   0.000676    3.42  0.000231  ( 0.000004  0.000019  0.015215)
 30:    933.05   0.000000    0.00  0.000000  (-0.000023 -0.000215 -0.000007)
 31:    933.09   0.000633    3.20  0.000212  (-0.000012  0.014547 -0.000018)
 32:    955.61   0.000222    1.12  0.000072  (-0.000006  0.008515 -0.000022)
 33:    955.73   0.000000    0.00  0.000000  (-0.000034 -0.000034  0.000003)
 34:   1019.73   0.002822   14.26  0.000864  (-0.029387  0.000001  0.000000)
 35:   1027.03   0.000109    0.55  0.000033  (-0.000001 -0.000011 -0.005765)
 36:   1071.62   0.000358    1.81  0.000104  ( 0.010206 -0.000002 -0.000001)
 37:   1090.51   0.001555    7.86  0.000445  (-0.000000  0.000095 -0.021097)
 38:   1103.44   0.004904   24.78  0.001387  ( 0.000000  0.000122 -0.037242)
 39:   1168.20   0.000000    0.00  0.000000  (-0.000024 -0.000087 -0.000001)
 40:   1168.25   0.004127   20.85  0.001102  ( 0.000010 -0.033201 -0.000097)
 41:   1186.99   0.000131    0.66  0.000034  (-0.000000  0.000023 -0.005873)
 42:   1193.20   0.000026    0.13  0.000007  (-0.002602 -0.000007  0.000000)
 43:   1247.55   0.034936  176.55  0.008739  (-0.093482  0.000005 -0.000001)
 44:   1319.67   0.005680   28.71  0.001343  ( 0.036650  0.000003 -0.000000)
 45:   1325.00   0.000121    0.61  0.000029  (-0.000003  0.000032 -0.005341)
 46:   1347.74   0.000000    0.00  0.000000  (-0.000031 -0.000004  0.000005)
 47:   1348.07   0.000173    0.88  0.000040  (-0.000004  0.006337  0.000005)
 48:   1395.11   0.000208    1.05  0.000046  ( 0.006815  0.000030 -0.000000)
 49:   1398.15   0.000163    0.82  0.000036  ( 0.000000  0.001722 -0.005781)
 50:   1398.84   0.000000    0.00  0.000000  (-0.000004  0.000025  0.000016)
 51:   1399.14   0.010309   52.10  0.002299  (-0.000000  0.047950  0.000320)
 52:   1408.99   0.003235   16.35  0.000716  (-0.000001 -0.000107  0.026766)
 53:   1420.52   0.014472   73.14  0.003179  ( 0.056385  0.000001  0.000001)
 54:   1442.56   0.005164   26.09  0.001117  (-0.000000 -0.000077  0.033422)
 55:   1444.92   0.000000    0.00  0.000000  ( 0.000014  0.000010  0.000008)
 56:   1444.93   0.000001    0.00  0.000000  ( 0.000009 -0.000051 -0.000417)
 57:   1455.55   0.000292    1.48  0.000063  (-0.000010  0.007918 -0.000042)
 58:   1455.57   0.000000    0.00  0.000000  (-0.000072 -0.000117 -0.000017)
 59:   1457.50   0.000750    3.79  0.000161  ( 0.012673 -0.000012 -0.000007)
 60:   1460.97   0.004022   20.32  0.000859  ( 0.000003 -0.000021  0.029310)
 61:   1468.89   0.002400   12.13  0.000510  ( 0.022581 -0.000001  0.000002)
 62:   1479.20   0.001067    5.39  0.000225  (-0.000003  0.000041 -0.015002)
 63:   1487.06   0.024168  122.14  0.005072  (-0.071216  0.000002  0.000000)
 64:   1654.33   0.000020    0.10  0.000004  (-0.000000 -0.000004  0.001955)
 65:   3062.77   0.000001    0.01  0.000000  ( 0.000073 -0.000365  0.000017)
 66:   3062.78   0.009748   49.26  0.000993  ( 0.000034  0.031516  0.000115)
 67:   3065.14   0.003225   16.30  0.000328  (-0.018121  0.000055  0.000030)
 68:   3065.28   0.001987   10.04  0.000202  (-0.000038  0.000163 -0.014223)
 69:   3126.80   0.002166   10.95  0.000216  (-0.000003 -0.000015  0.014705)
 70:   3127.02   0.000304    1.53  0.000030  (-0.005504  0.000009 -0.000007)
 71:   3162.07   0.002921   14.76  0.000288  (-0.000007 -0.016978  0.000051)
 72:   3162.08   0.000000    0.00  0.000000  ( 0.000007  0.000188  0.000061)
 73:   3165.91   0.000081    0.41  0.000008  (-0.002819  0.000033  0.000032)
 74:   3166.01   0.018954   95.79  0.001868  ( 0.000001 -0.000038  0.043224)
 75:   3175.47   0.004453   22.50  0.000438  (-0.000067  0.020920  0.000064)
 76:   3175.47   0.000001    0.01  0.000000  (-0.000117 -0.000310  0.000010)
 77:   3177.19   0.013679   69.13  0.001344  (-0.036654 -0.000034 -0.000017)
 78:   3177.23   0.000852    4.31  0.000084  (-0.000066 -0.000091  0.009149)
 79:   3282.40   0.001416    7.16  0.000135  (-0.011602  0.000001 -0.000000)
 80:   3302.88   0.000248    1.25  0.000023  (-0.000000  0.000014 -0.004836)

--------------------------
THERMOCHEMISTRY AT 298.15K
--------------------------

Temperature         ... 298.15 K
Pressure            ... 1.00 atm
Total Mass          ... 152.24 AMU

Throughout the following assumptions are being made:
  (1) The electronic state is orbitally nondegenerate
  (2) There are no thermally accessible electronically excited states
  (3) Hindered rotations indicated by low frequency modes are not
      treated as such but are treated as vibrations and this may
      cause some error
  (4) All equations used are the standard statistical mechanics
      equations for an ideal gas
  (5) All vibrations are strictly harmonic

freq.      23.04  E(vib)   ...       0.56
freq.      27.24  E(vib)   ...       0.55
freq.     115.75  E(vib)   ...       0.44
freq.     149.13  E(vib)   ...       0.40
freq.     159.15  E(vib)   ...       0.39
freq.     231.84  E(vib)   ...       0.32
freq.     231.95  E(vib)   ...       0.32
freq.     251.20  E(vib)   ...       0.30
freq.     262.68  E(vib)   ...       0.29
freq.     270.27  E(vib)   ...       0.29
freq.     299.49  E(vib)   ...       0.26
freq.     354.55  E(vib)   ...       0.22
freq.     404.06  E(vib)   ...       0.19
freq.     444.94  E(vib)   ...       0.17
freq.     458.52  E(vib)   ...       0.16
freq.     573.88  E(vib)   ...       0.11
freq.     635.43  E(vib)   ...       0.09
freq.     674.98  E(vib)   ...       0.08
freq.     682.73  E(vib)   ...       0.08
freq.     689.98  E(vib)   ...       0.07
freq.     749.57  E(vib)   ...       0.06
freq.     883.49  E(vib)   ...       0.04
freq.     907.08  E(vib)   ...       0.03
freq.     911.77  E(vib)   ...       0.03
freq.     933.05  E(vib)   ...       0.03
freq.     933.09  E(vib)   ...       0.03
freq.     955.61  E(vib)   ...       0.03
freq.     955.73  E(vib)   ...       0.03
freq.    1019.73  E(vib)   ...       0.02
freq.    1027.03  E(vib)   ...       0.02
freq.    1071.62  E(vib)   ...       0.02
freq.    1090.51  E(vib)   ...       0.02
freq.    1103.44  E(vib)   ...       0.02
freq.    1168.20  E(vib)   ...       0.01
freq.    1168.25  E(vib)   ...       0.01
freq.    1186.99  E(vib)   ...       0.01
freq.    1193.20  E(vib)   ...       0.01
freq.    1247.55  E(vib)   ...       0.01
freq.    1319.67  E(vib)   ...       0.01
freq.    1325.00  E(vib)   ...       0.01
freq.    1347.74  E(vib)   ...       0.01
freq.    1348.07  E(vib)   ...       0.01
freq.    1395.11  E(vib)   ...       0.00
freq.    1398.15  E(vib)   ...       0.00
freq.    1398.84  E(vib)   ...       0.00
freq.    1399.14  E(vib)   ...       0.00
freq.    1408.99  E(vib)   ...       0.00
freq.    1420.52  E(vib)   ...       0.00
freq.    1442.56  E(vib)   ...       0.00
freq.    1444.92  E(vib)   ...       0.00
freq.    1444.93  E(vib)   ...       0.00
freq.    1455.55  E(vib)   ...       0.00
freq.    1455.57  E(vib)   ...       0.00
freq.    1457.50  E(vib)   ...       0.00
freq.    1460.97  E(vib)   ...       0.00
freq.    1468.89  E(vib)   ...       0.00
freq.    1479.20  E(vib)   ...       0.00
freq.    1487.06  E(vib)   ...       0.00
freq.    1654.33  E(vib)   ...       0.00
freq.    3062.77  E(vib)   ...       0.00
freq.    3062.78  E(vib)   ...       0.00
freq.    3065.14  E(vib)   ...       0.00
freq.    3065.28  E(vib)   ...       0.00
freq.    3126.80  E(vib)   ...       0.00
freq.    3127.02  E(vib)   ...       0.00
freq.    3162.07  E(vib)   ...       0.00
freq.    3162.08  E(vib)   ...       0.00
freq.    3165.91  E(vib)   ...       0.00
freq.    3166.01  E(vib)   ...       0.00
freq.    3175.47  E(vib)   ...       0.00
freq.    3175.47  E(vib)   ...       0.00
freq.    3177.19  E(vib)   ...       0.00
freq.    3177.23  E(vib)   ...       0.00
freq.    3282.40  E(vib)   ...       0.00
freq.    3302.88  E(vib)   ...       0.00

------------
INNER ENERGY
------------

The inner energy is: U= E(el) + E(ZPE) + E(vib) + E(rot) + E(trans)
    E(el)   - is the total energy from the electronic structure calculation
              = E(kin-el) + E(nuc-el) + E(el-el) + E(nuc-nuc)
    E(ZPE)  - the the zero temperature vibrational energy from the frequency calculation
    E(vib)  - the the finite temperature correction to E(ZPE) due to population
              of excited vibrational states
    E(rot)  - is the rotational thermal energy
    E(trans)- is the translational thermal energy

Summary of contributions to the inner energy U:
Electronic energy                ...   -461.63292957 Eh
Zero point energy                ...      0.24129431 Eh     151.41 kcal/mol
Thermal vibrational correction   ...      0.00928923 Eh       5.83 kcal/mol
Thermal rotational correction    ...      0.00141627 Eh       0.89 kcal/mol
Thermal translational correction ...      0.00141627 Eh       0.89 kcal/mol
-----------------------------------------------------------------------
Total thermal energy                   -461.37951349 Eh

Summary of corrections to the electronic energy:
(perhaps to be used in another calculation)
Total thermal correction                  0.01212177 Eh       7.61 kcal/mol
Non-thermal (ZPE) correction              0.24129431 Eh     151.41 kcal/mol
-----------------------------------------------------------------------
Total correction                          0.25341608 Eh     159.02 kcal/mol

--------
ENTHALPY
--------

The enthalpy is H = U + kB*T
                kB is Boltzmann's constant
Total free energy                 ...   -461.37951349 Eh
Thermal Enthalpy correction       ...      0.00094421 Eh       0.59 kcal/mol
-----------------------------------------------------------------------
Total Enthalpy                    ...   -461.37856928 Eh

Note: Only C1 symmetry has been detected, increase convergence thresholds
      if your molecule has a higher symmetry. Symmetry factor of 1.0 is
      used for the rotational entropy correction.

Note: Rotational entropy computed according to Herzberg
Infrared and Raman Spectra, Chapter V,1, Van Nostrand Reinhold, 1945
Point Group:  C1, Symmetry Number:   1
Rotational constants in cm-1:     0.091077     0.018628     0.017942

Vibrational entropy computed according to the QRRHO of S. Grimme
Chem.Eur.J. 2012 18 9955

-------
ENTROPY
-------

The entropy contributions are T*S = T*(S(el)+S(vib)+S(rot)+S(trans))
     S(el)   - electronic entropy
     S(vib)  - vibrational entropy
     S(rot)  - rotational entropy
     S(trans)- translational entropy
The entropies will be listed as multiplied by the temperature to get
units of energy

                             ****ORCA TERMINATED NORMALLY****
TOTAL RUN TIME: 0 days 0 hours 55 minutes 19 seconds 941 msec
