                         Program Version 5.0.4 -  RELEASE  -
|  1> # ORCA 5.0.4 - /users/bwb16179/postgrad/2024_03/DFT_Crest_Conformers/Opt/deprot/4_deprot_aq_6.inp # write input file
|  2> # Basic Mode
|  3> #
|  4> ! Opt Freq wB97X Def2-SVP D4 SlowConv TightSCF Defgrid2 Def2/J RIJCOSX CPCM(Water)
|  5>
|  6>
|  7>
|  8> %maxcore 4500
|  9>
| 10> %geom
| 11> Maxiter 150
| 12> END
| 13>
| 14> * xyzfile 0 1 4_deprot_aq_6.xyz
| 15>
| 16>                          ****END OF INPUT****
 Total Charge           Charge          ....    0
 Multiplicity           Mult            ....    1
 Number of Electrons    NEL             ....   84
Dispersion correction           -0.004204790
FINAL SINGLE POINT ENERGY      -461.626979129261
Dispersion correction            ... Starting D4
Dispersion correction           -0.004159398
FINAL SINGLE POINT ENERGY      -461.631057380785
Dispersion correction            ... Starting D4
Dispersion correction           -0.004152612
FINAL SINGLE POINT ENERGY      -461.631480290964
Dispersion correction            ... Starting D4
FINAL SINGLE POINT ENERGY      -461.631613843135
FINAL SINGLE POINT ENERGY      -461.631617948050
FINAL SINGLE POINT ENERGY      -461.631614635741
FINAL SINGLE POINT ENERGY      -461.631749572728
FINAL SINGLE POINT ENERGY      -461.631769156456
FINAL SINGLE POINT ENERGY      -461.631855575865
Dispersion correction           -0.004152964
FINAL SINGLE POINT ENERGY      -461.631873072482
Dispersion correction            ... Starting D4
Dispersion correction           -0.004152292
FINAL SINGLE POINT ENERGY      -461.631881595087
Dispersion correction            ... Starting D4
                    ***********************HURRAY********************

CARTESIAN COORDINATES (ANGSTROEM)
---------------------------------
  N     -1.061278    0.011531    0.383860
  C      0.000127   -0.015725   -0.462190
  N      1.061346   -0.002125    0.384419
  C      0.677977    0.034135    1.715074
  C     -0.678156    0.042771    1.714721
  C     -2.463286    0.011574   -0.054965
  C      2.463423   -0.021939   -0.053711
  C     -2.782678    1.272192   -0.849050
  H     -3.057634    0.022085    0.872920
  C     -2.791293   -1.261646   -0.825258
  H      3.057464   -0.015604    0.874411
  C      2.799557    1.231907   -0.851745
  C      2.775041   -1.301750   -0.819726
  H      1.395197    0.051481    2.534369
  H     -1.395541    0.069007    2.533639
  H     -2.570196   -2.154553   -0.220728
  H     -2.197281   -1.313199   -1.750746
  H     -3.858624   -1.279083   -1.093223
  H     -2.553816    2.174474   -0.261466
  H     -3.850091    1.293055   -1.116373
  H     -2.188799    1.301875   -1.775697
  H      2.183347   -1.346997   -1.747038
  H      2.538120   -2.189668   -0.213817
  H      3.842956   -1.335828   -1.083594
  H      3.866486    1.236295   -1.121891
  H      2.585862    2.139057   -0.265981
  H      2.204226    1.267759   -1.777245

 Multiplicity           Mult            ....    1
 Number of Electrons    NEL             ....   84
 Basis Dimension        Dim             ....  234

ORBITAL ENERGIES
----------------

  NO   OCC          E(Eh)            E(eV)
   0   2.0000     -14.446481      -393.1087
   1   2.0000     -14.446472      -393.1085
   2   2.0000     -10.308907      -280.5196
   3   2.0000     -10.308875      -280.5188
   4   2.0000     -10.293385      -280.0973
   5   2.0000     -10.292811      -280.0816
   6   2.0000     -10.274255      -279.5767
   7   2.0000     -10.260387      -279.1993
   8   2.0000     -10.260376      -279.1990
   9   2.0000     -10.260323      -279.1976
  10   2.0000     -10.260314      -279.1973
  11   2.0000      -1.146742       -31.2044
  12   2.0000      -1.038799       -28.2671
  13   2.0000      -0.934419       -25.4268
  14   2.0000      -0.883926       -24.0528
  15   2.0000      -0.858500       -23.3610
  16   2.0000      -0.805961       -21.9313
  17   2.0000      -0.805391       -21.9158
  18   2.0000      -0.772673       -21.0255
  19   2.0000      -0.721235       -19.6258
  20   2.0000      -0.695358       -18.9217
  21   2.0000      -0.651224       -17.7207
  22   2.0000      -0.623072       -16.9546
  23   2.0000      -0.575422       -15.6580
  24   2.0000      -0.567872       -15.4526
  25   2.0000      -0.566648       -15.4193
  26   2.0000      -0.558969       -15.2103
  27   2.0000      -0.534596       -14.5471
  28   2.0000      -0.532823       -14.4988
  29   2.0000      -0.525132       -14.2896
  30   2.0000      -0.496747       -13.5172
  31   2.0000      -0.488241       -13.2857
  32   2.0000      -0.481926       -13.1139
  33   2.0000      -0.476689       -12.9714
  34   2.0000      -0.469592       -12.7782
  35   2.0000      -0.454676       -12.3724
  36   2.0000      -0.445241       -12.1156
  37   2.0000      -0.440176       -11.9778
  38   2.0000      -0.435435       -11.8488
  39   2.0000      -0.371221       -10.1014
  40   2.0000      -0.322324        -8.7709
  41   2.0000      -0.320783        -8.7290
  42   0.0000       0.126408         3.4397
  43   0.0000       0.128841         3.5059
  44   0.0000       0.150781         4.1030
  45   0.0000       0.156993         4.2720
  46   0.0000       0.177752         4.8369

MULLIKEN ATOMIC CHARGES
-----------------------
   0 N :   -0.221267
   1 C :   -0.192140
   2 N :   -0.221277
   3 C :    0.011086
   4 C :    0.011066
   5 C :    0.001884
   6 C :    0.001915
   7 C :   -0.006463
   8 H :    0.041618
   9 C :   -0.006969
  10 H :    0.041622
  11 C :   -0.006611
  12 C :   -0.006823
  13 H :    0.065021
  14 H :    0.065020
  15 H :    0.036419
  16 H :    0.027416
  17 H :    0.041704
  18 H :    0.036319
  19 H :    0.041874
  20 H :    0.027432
  21 H :    0.027454
  22 H :    0.036368
  23 H :    0.041789
  24 H :    0.041777
  25 H :    0.036371
  26 H :    0.027393
Sum of atomic charges:    0.0000000

LOEWDIN ATOMIC CHARGES
----------------------
   0 N :    0.034103
   1 C :   -0.311324
   2 N :    0.034102
   3 C :   -0.039925
   4 C :   -0.039934
   5 C :    0.032217
   6 C :    0.032222
   7 C :   -0.060052
   8 H :    0.032926
   9 C :   -0.060033
  10 H :    0.032929
  11 C :   -0.060069
  12 C :   -0.060016
  13 H :    0.040899
  14 H :    0.040898
  15 H :    0.029537
  16 H :    0.024537
  17 H :    0.033604
  18 H :    0.029534
  19 H :    0.033643
  20 H :    0.024678
  21 H :    0.024582
  22 H :    0.029546
  23 H :    0.033618
  24 H :    0.033621
  25 H :    0.029526
  26 H :    0.024635

  Mayer bond orders larger than 0.100000
B(  0-N ,  1-C ) :   1.2522 B(  0-N ,  4-C ) :   1.1348 B(  0-N ,  5-C ) :   0.8949
B(  1-C ,  2-N ) :   1.2522 B(  2-N ,  3-C ) :   1.1348 B(  2-N ,  6-C ) :   0.8948
B(  3-C ,  4-C ) :   1.6113 B(  3-C , 13-H ) :   0.9890 B(  4-C , 14-H ) :   0.9890
B(  5-C ,  7-C ) :   1.0728 B(  5-C ,  8-H ) :   0.9445 B(  5-C ,  9-C ) :   1.0725
B(  6-C , 10-H ) :   0.9445 B(  6-C , 11-C ) :   1.0727 B(  6-C , 12-C ) :   1.0725
B(  7-C , 18-H ) :   0.9686 B(  7-C , 19-H ) :   0.9715 B(  7-C , 20-H ) :   0.9639
B(  9-C , 15-H ) :   0.9688 B(  9-C , 16-H ) :   0.9638 B(  9-C , 17-H ) :   0.9714
B( 11-C , 24-H ) :   0.9716 B( 11-C , 25-H ) :   0.9687 B( 11-C , 26-H ) :   0.9639
B( 12-C , 21-H ) :   0.9639 B( 12-C , 22-H ) :   0.9687 B( 12-C , 23-H ) :   0.9714

Dispersion correction           -0.004152588
FINAL SINGLE POINT ENERGY      -461.631883415390

DIPOLE MOMENT
-------------
                                X             Y             Z
Electronic contribution:     -0.00058       0.10470       6.52788
Nuclear contribution   :      0.00047      -0.06986      -5.18787
                        -----------------------------------------
Total Dipole Moment    :     -0.00011       0.03484       1.34001
                        -----------------------------------------
Magnitude (a.u.)       :      1.34046
Magnitude (Debye)      :      3.40719

Dispersion correction in the Hessian             ... Starting D4

VIBRATIONAL FREQUENCIES
-----------------------

Scaling factor for frequencies =  1.000000000  (already applied!)

   0:         0.00 cm**-1
   1:         0.00 cm**-1
   2:         0.00 cm**-1
   3:         0.00 cm**-1
   4:         0.00 cm**-1
   5:         0.00 cm**-1
   6:        43.83 cm**-1
   7:        53.43 cm**-1
   8:        90.32 cm**-1
   9:       149.67 cm**-1
  10:       175.72 cm**-1
  11:       260.48 cm**-1
  12:       260.83 cm**-1
  13:       276.86 cm**-1
  14:       291.05 cm**-1
  15:       316.97 cm**-1
  16:       330.99 cm**-1
  17:       346.57 cm**-1
  18:       403.73 cm**-1
  19:       456.63 cm**-1
  20:       487.68 cm**-1
  21:       529.94 cm**-1
  22:       614.87 cm**-1
  23:       670.95 cm**-1
  24:       683.52 cm**-1
  25:       723.20 cm**-1
  26:       744.31 cm**-1
  27:       876.08 cm**-1
  28:       911.47 cm**-1
  29:       921.98 cm**-1
  30:       934.48 cm**-1
  31:       934.72 cm**-1
  32:       963.41 cm**-1
  33:       964.11 cm**-1
  34:      1012.37 cm**-1
  35:      1023.99 cm**-1
  36:      1089.15 cm**-1
  37:      1119.69 cm**-1
  38:      1145.90 cm**-1
  39:      1160.93 cm**-1
  40:      1171.40 cm**-1
  41:      1171.50 cm**-1
  42:      1191.19 cm**-1
  43:      1226.60 cm**-1
  44:      1327.03 cm**-1
  45:      1333.31 cm**-1
  46:      1349.45 cm**-1
  47:      1349.47 cm**-1
  48:      1394.62 cm**-1
  49:      1395.75 cm**-1
  50:      1401.97 cm**-1
  51:      1402.06 cm**-1
  52:      1414.13 cm**-1
  53:      1435.23 cm**-1
  54:      1447.87 cm**-1
  55:      1447.90 cm**-1
  56:      1452.32 cm**-1
  57:      1455.54 cm**-1
  58:      1455.56 cm**-1
  59:      1458.57 cm**-1
  60:      1468.79 cm**-1
  61:      1474.87 cm**-1
  62:      1483.47 cm**-1
  63:      1494.42 cm**-1
  64:      1648.48 cm**-1
  65:      3065.98 cm**-1
  66:      3066.01 cm**-1
  67:      3068.70 cm**-1
  68:      3068.79 cm**-1
  69:      3107.57 cm**-1
  70:      3107.72 cm**-1
  71:      3171.24 cm**-1
  72:      3171.29 cm**-1
  73:      3172.34 cm**-1
  74:      3172.40 cm**-1
  75:      3173.58 cm**-1
  76:      3173.67 cm**-1
  77:      3177.02 cm**-1
  78:      3177.23 cm**-1
  79:      3281.10 cm**-1
  80:      3302.01 cm**-1

IR SPECTRUM
-----------

 Mode   freq       eps      Int      T**2         TX        TY        TZ
       cm**-1   L/(mol*cm) km/mol    a.u.
----------------------------------------------------------------------------
  6:     43.83   0.002242   11.33  0.015960  ( 0.000937  0.126302 -0.002603)
  7:     53.43   0.000001    0.01  0.000007  (-0.000102 -0.002559  0.000089)
  8:     90.32   0.001100    5.56  0.003800  ( 0.000607  0.061627 -0.001468)
  9:    149.67   0.000288    1.46  0.000601  ( 0.000058 -0.000314  0.024523)
 10:    175.72   0.000000    0.00  0.000000  (-0.000447 -0.000052 -0.000118)
 11:    260.48   0.000021    0.11  0.000025  ( 0.000266  0.004987 -0.000137)
 12:    260.83   0.000004    0.02  0.000005  (-0.001773 -0.001217  0.000296)
 13:    276.86   0.000763    3.86  0.000860  ( 0.029309 -0.000941  0.000103)
 14:    291.05   0.000002    0.01  0.000002  ( 0.000430  0.000101 -0.001406)
 15:    316.97   0.000382    1.93  0.000376  (-0.000260 -0.000770  0.019364)
 16:    330.99   0.001241    6.27  0.001170  ( 0.034203  0.000388  0.000141)
 17:    346.57   0.000478    2.42  0.000431  ( 0.020753 -0.000243 -0.000035)
 18:    403.73   0.003943   19.93  0.003048  ( 0.000182  0.055193 -0.001135)
 19:    456.63   0.000000    0.00  0.000000  ( 0.000314 -0.000007 -0.000067)
 20:    487.68   0.000122    0.62  0.000078  (-0.000013  0.000325  0.008834)
 21:    529.94   0.000045    0.23  0.000027  (-0.005160  0.000074 -0.000013)
 22:    614.87   0.000493    2.49  0.000250  (-0.000001  0.000572  0.015804)
 23:    670.95   0.000000    0.00  0.000000  (-0.000009 -0.000166 -0.000007)
 24:    683.52   0.003210   16.22  0.001465  (-0.000324 -0.038269  0.000921)
 25:    723.20   0.002660   13.44  0.001148  (-0.033875  0.000479 -0.000014)
 26:    744.31   0.014130   71.41  0.005924  (-0.000404 -0.076936  0.002198)
 27:    876.08   0.000000    0.00  0.000000  ( 0.000190 -0.000048  0.000013)
 28:    911.47   0.000006    0.03  0.000002  ( 0.000058  0.000376  0.001422)
 29:    921.98   0.001538    7.77  0.000521  ( 0.022814  0.000208 -0.000003)
 30:    934.48   0.000064    0.32  0.000021  ( 0.000855  0.004535 -0.000016)
 31:    934.72   0.000943    4.77  0.000315  ( 0.000411 -0.017737  0.000341)
 32:    963.41   0.000003    0.02  0.000001  ( 0.000175 -0.001035  0.000036)
 33:    964.11   0.000222    1.12  0.000072  ( 0.000139 -0.008482  0.000005)
 34:   1012.37   0.004294   21.70  0.001324  (-0.036383  0.000144  0.000017)
 35:   1023.99   0.000288    1.46  0.000088  ( 0.000005 -0.000103  0.009375)
 36:   1089.15   0.004915   24.84  0.001408  (-0.000002 -0.001663 -0.037492)
 37:   1119.69   0.000661    3.34  0.000184  ( 0.000029  0.000375  0.013571)
 38:   1145.90   0.010568   53.41  0.002878  (-0.053645  0.000485  0.000029)
 39:   1160.93   0.004535   22.92  0.001219  (-0.034909  0.000508 -0.000064)
 40:   1171.40   0.003248   16.41  0.000865  ( 0.000922  0.029395 -0.000553)
 41:   1171.50   0.000120    0.61  0.000032  (-0.000814  0.005582 -0.000283)
 42:   1191.19   0.001012    5.12  0.000265  ( 0.000046 -0.000287  0.016283)
 43:   1226.60   0.008423   42.57  0.002143  ( 0.046290 -0.000335  0.000006)
 44:   1327.03   0.014294   72.24  0.003361  (-0.057976  0.000309 -0.000018)
 45:   1333.31   0.000011    0.05  0.000003  ( 0.000016 -0.000025  0.001589)
 46:   1349.45   0.000005    0.02  0.000001  (-0.000416  0.000961 -0.000036)
 47:   1349.47   0.000017    0.09  0.000004  (-0.000008 -0.001995  0.000114)
 48:   1394.62   0.000510    2.58  0.000114  (-0.010624 -0.000899  0.000647)
 49:   1395.75   0.002356   11.91  0.000527  ( 0.000256  0.000738  0.022939)
 50:   1401.97   0.000184    0.93  0.000041  (-0.000205 -0.006383 -0.000304)
 51:   1402.06   0.008921   45.08  0.001986  ( 0.000033 -0.044553  0.000732)
 52:   1414.13   0.003537   17.87  0.000781  (-0.000005 -0.000582 -0.027932)
 53:   1435.23   0.006811   34.42  0.001481  ( 0.038482 -0.000358 -0.000045)
 54:   1447.87   0.000168    0.85  0.000036  (-0.000088  0.005948 -0.000881)
 55:   1447.90   0.000079    0.40  0.000017  (-0.001094 -0.003631  0.001657)
 56:   1452.32   0.010121   51.15  0.002175  ( 0.000467  0.000808  0.046624)
 57:   1455.54   0.000099    0.50  0.000021  (-0.001771  0.004142  0.001004)
 58:   1455.56   0.000072    0.36  0.000015  ( 0.001822 -0.003121  0.001514)
 59:   1458.57   0.006300   31.84  0.001348  (-0.036709 -0.000039  0.000534)
 60:   1468.79   0.000004    0.02  0.000001  (-0.000140 -0.000377 -0.000851)
 61:   1474.87   0.013421   67.82  0.002840  ( 0.053288 -0.000319  0.000032)
 62:   1483.47   0.002287   11.56  0.000481  ( 0.021934 -0.000231  0.000000)
 63:   1494.42   0.004316   21.81  0.000901  (-0.000007  0.000558  0.030016)
 64:   1648.48   0.000382    1.93  0.000072  (-0.000007 -0.000061  0.008499)
 65:   3065.98   0.006588   33.29  0.000671  (-0.001128 -0.025815  0.001688)
 66:   3066.01   0.004526   22.87  0.000461  ( 0.000705 -0.021424  0.001086)
 67:   3068.70   0.001648    8.33  0.000168  (-0.012935  0.000511  0.000142)
 68:   3068.79   0.002845   14.38  0.000289  (-0.000169 -0.003442 -0.016657)
 69:   3107.57   0.004076   20.60  0.000409  (-0.020230  0.000095 -0.000031)
 70:   3107.72   0.004983   25.18  0.000500  (-0.000039  0.000089  0.022368)
 71:   3171.24   0.005245   26.51  0.000516  (-0.000810 -0.021447 -0.007452)
 72:   3171.29   0.002411   12.18  0.000237  (-0.000582  0.015076  0.003095)
 73:   3172.34   0.003436   17.36  0.000338  ( 0.007855  0.001710 -0.016534)
 74:   3172.40   0.008703   43.98  0.000856  ( 0.004524 -0.006106  0.028256)
 75:   3173.58   0.000244    1.23  0.000024  ( 0.004219 -0.002469 -0.000334)
 76:   3173.67   0.000157    0.79  0.000015  ( 0.001782  0.002057  0.002835)
 77:   3177.02   0.019277   97.42  0.001894  ( 0.043514  0.000083 -0.000262)
 78:   3177.23   0.001585    8.01  0.000156  (-0.000472  0.000414 -0.012461)
 79:   3281.10   0.001348    6.81  0.000128  (-0.011321  0.000081  0.000006)
 80:   3302.01   0.000137    0.69  0.000013  ( 0.000004  0.000164  0.003594)

--------------------------
THERMOCHEMISTRY AT 298.15K
--------------------------

Temperature         ... 298.15 K
Pressure            ... 1.00 atm
Total Mass          ... 152.24 AMU

Throughout the following assumptions are being made:
  (1) The electronic state is orbitally nondegenerate
  (2) There are no thermally accessible electronically excited states
  (3) Hindered rotations indicated by low frequency modes are not
      treated as such but are treated as vibrations and this may
      cause some error
  (4) All equations used are the standard statistical mechanics
      equations for an ideal gas
  (5) All vibrations are strictly harmonic

freq.      43.83  E(vib)   ...       0.53
freq.      53.43  E(vib)   ...       0.52
freq.      90.32  E(vib)   ...       0.47
freq.     149.67  E(vib)   ...       0.40
freq.     175.72  E(vib)   ...       0.38
freq.     260.48  E(vib)   ...       0.30
freq.     260.83  E(vib)   ...       0.30
freq.     276.86  E(vib)   ...       0.28
freq.     291.05  E(vib)   ...       0.27
freq.     316.97  E(vib)   ...       0.25
freq.     330.99  E(vib)   ...       0.24
freq.     346.57  E(vib)   ...       0.23
freq.     403.73  E(vib)   ...       0.19
freq.     456.63  E(vib)   ...       0.16
freq.     487.68  E(vib)   ...       0.15
freq.     529.94  E(vib)   ...       0.13
freq.     614.87  E(vib)   ...       0.10
freq.     670.95  E(vib)   ...       0.08
freq.     683.52  E(vib)   ...       0.07
freq.     723.20  E(vib)   ...       0.07
freq.     744.31  E(vib)   ...       0.06
freq.     876.08  E(vib)   ...       0.04
freq.     911.47  E(vib)   ...       0.03
freq.     921.98  E(vib)   ...       0.03
freq.     934.48  E(vib)   ...       0.03
freq.     934.72  E(vib)   ...       0.03
freq.     963.41  E(vib)   ...       0.03
freq.     964.11  E(vib)   ...       0.03
freq.    1012.37  E(vib)   ...       0.02
freq.    1023.99  E(vib)   ...       0.02
freq.    1089.15  E(vib)   ...       0.02
freq.    1119.69  E(vib)   ...       0.01
freq.    1145.90  E(vib)   ...       0.01
freq.    1160.93  E(vib)   ...       0.01
freq.    1171.40  E(vib)   ...       0.01
freq.    1171.50  E(vib)   ...       0.01
freq.    1191.19  E(vib)   ...       0.01
freq.    1226.60  E(vib)   ...       0.01
freq.    1327.03  E(vib)   ...       0.01
freq.    1333.31  E(vib)   ...       0.01
freq.    1349.45  E(vib)   ...       0.01
freq.    1349.47  E(vib)   ...       0.01
freq.    1394.62  E(vib)   ...       0.00
freq.    1395.75  E(vib)   ...       0.00
freq.    1401.97  E(vib)   ...       0.00
freq.    1402.06  E(vib)   ...       0.00
freq.    1414.13  E(vib)   ...       0.00
freq.    1435.23  E(vib)   ...       0.00
freq.    1447.87  E(vib)   ...       0.00
freq.    1447.90  E(vib)   ...       0.00
freq.    1452.32  E(vib)   ...       0.00
freq.    1455.54  E(vib)   ...       0.00
freq.    1455.56  E(vib)   ...       0.00
freq.    1458.57  E(vib)   ...       0.00
freq.    1468.79  E(vib)   ...       0.00
freq.    1474.87  E(vib)   ...       0.00
freq.    1483.47  E(vib)   ...       0.00
freq.    1494.42  E(vib)   ...       0.00
freq.    1648.48  E(vib)   ...       0.00
freq.    3065.98  E(vib)   ...       0.00
freq.    3066.01  E(vib)   ...       0.00
freq.    3068.70  E(vib)   ...       0.00
freq.    3068.79  E(vib)   ...       0.00
freq.    3107.57  E(vib)   ...       0.00
freq.    3107.72  E(vib)   ...       0.00
freq.    3171.24  E(vib)   ...       0.00
freq.    3171.29  E(vib)   ...       0.00
freq.    3172.34  E(vib)   ...       0.00
freq.    3172.40  E(vib)   ...       0.00
freq.    3173.58  E(vib)   ...       0.00
freq.    3173.67  E(vib)   ...       0.00
freq.    3177.02  E(vib)   ...       0.00
freq.    3177.23  E(vib)   ...       0.00
freq.    3281.10  E(vib)   ...       0.00
freq.    3302.01  E(vib)   ...       0.00

------------
INNER ENERGY
------------

The inner energy is: U= E(el) + E(ZPE) + E(vib) + E(rot) + E(trans)
    E(el)   - is the total energy from the electronic structure calculation
              = E(kin-el) + E(nuc-el) + E(el-el) + E(nuc-nuc)
    E(ZPE)  - the the zero temperature vibrational energy from the frequency calculation
    E(vib)  - the the finite temperature correction to E(ZPE) due to population
              of excited vibrational states
    E(rot)  - is the rotational thermal energy
    E(trans)- is the translational thermal energy

Summary of contributions to the inner energy U:
Electronic energy                ...   -461.63188342 Eh
Zero point energy                ...      0.24211909 Eh     151.93 kcal/mol
Thermal vibrational correction   ...      0.00895066 Eh       5.62 kcal/mol
Thermal rotational correction    ...      0.00141627 Eh       0.89 kcal/mol
Thermal translational correction ...      0.00141627 Eh       0.89 kcal/mol
-----------------------------------------------------------------------
Total thermal energy                   -461.37798113 Eh

Summary of corrections to the electronic energy:
(perhaps to be used in another calculation)
Total thermal correction                  0.01178320 Eh       7.39 kcal/mol
Non-thermal (ZPE) correction              0.24211909 Eh     151.93 kcal/mol
-----------------------------------------------------------------------
Total correction                          0.25390229 Eh     159.33 kcal/mol

--------
ENTHALPY
--------

The enthalpy is H = U + kB*T
                kB is Boltzmann's constant
Total free energy                 ...   -461.37798113 Eh
Thermal Enthalpy correction       ...      0.00094421 Eh       0.59 kcal/mol
-----------------------------------------------------------------------
Total Enthalpy                    ...   -461.37703692 Eh

Note: Only C1 symmetry has been detected, increase convergence thresholds
      if your molecule has a higher symmetry. Symmetry factor of 1.0 is
      used for the rotational entropy correction.

Note: Rotational entropy computed according to Herzberg
Infrared and Raman Spectra, Chapter V,1, Van Nostrand Reinhold, 1945
Point Group:  C1, Symmetry Number:   1
Rotational constants in cm-1:     0.066678     0.021080     0.020227

Vibrational entropy computed according to the QRRHO of S. Grimme
Chem.Eur.J. 2012 18 9955

-------
ENTROPY
-------

The entropy contributions are T*S = T*(S(el)+S(vib)+S(rot)+S(trans))
     S(el)   - electronic entropy
     S(vib)  - vibrational entropy
     S(rot)  - rotational entropy
     S(trans)- translational entropy
The entropies will be listed as multiplied by the temperature to get
units of energy

                             ****ORCA TERMINATED NORMALLY****
TOTAL RUN TIME: 0 days 1 hours 33 minutes 51 seconds 609 msec
