                         Program Version 5.0.4 -  RELEASE  -
|  1> # ORCA 5.0.4 - /users/bwb16179/postgrad/2024_03/DFT_Crest_Conformers/Opt/deprot/4_deprot_aq_9.inp # write input file
|  2> # Basic Mode
|  3> #
|  4> ! Opt Freq wB97X Def2-SVP D4 SlowConv TightSCF Defgrid2 Def2/J RIJCOSX CPCM(Water)
|  5>
|  6>
|  7>
|  8> %maxcore 4500
|  9>
| 10> %geom
| 11> Maxiter 150
| 12> END
| 13>
| 14> * xyzfile 0 1 4_deprot_aq_9.xyz
| 15>
| 16>                          ****END OF INPUT****
 Total Charge           Charge          ....    0
 Multiplicity           Mult            ....    1
 Number of Electrons    NEL             ....   84
Dispersion correction           -0.004175005
FINAL SINGLE POINT ENERGY      -461.623959497838
Dispersion correction            ... Starting D4
Dispersion correction           -0.004128594
FINAL SINGLE POINT ENERGY      -461.628101824165
Dispersion correction            ... Starting D4
Dispersion correction           -0.004126444
FINAL SINGLE POINT ENERGY      -461.628423211003
Dispersion correction            ... Starting D4
FINAL SINGLE POINT ENERGY      -461.628560530689
FINAL SINGLE POINT ENERGY      -461.628643868323
FINAL SINGLE POINT ENERGY      -461.628862068033
FINAL SINGLE POINT ENERGY      -461.629119438708
FINAL SINGLE POINT ENERGY      -461.629615897470
FINAL SINGLE POINT ENERGY      -461.630158168451
FINAL SINGLE POINT ENERGY      -461.630513231375
FINAL SINGLE POINT ENERGY      -461.632261943566
FINAL SINGLE POINT ENERGY      -461.632284990669
FINAL SINGLE POINT ENERGY      -461.632303401305
FINAL SINGLE POINT ENERGY      -461.632313718535
FINAL SINGLE POINT ENERGY      -461.632319624446
FINAL SINGLE POINT ENERGY      -461.632325292558
FINAL SINGLE POINT ENERGY      -461.632331425606
Dispersion correction           -0.004114160
FINAL SINGLE POINT ENERGY      -461.632342721199
Dispersion correction            ... Starting D4
Dispersion correction           -0.004114129
FINAL SINGLE POINT ENERGY      -461.632348825464
Dispersion correction            ... Starting D4
                    ***********************HURRAY********************

CARTESIAN COORDINATES (ANGSTROEM)
---------------------------------
  N     -1.113372   -0.070827   -0.245346
  C     -0.152028    0.400383    0.592036
  N      0.997895    0.079026   -0.055566
  C      0.765540   -0.569368   -1.259001
  C     -0.581919   -0.664549   -1.377429
  C     -2.555749    0.050915    0.006519
  C      2.332450    0.410460    0.451679
  C     -2.953664   -0.694154    1.274578
  H     -3.042887   -0.437663   -0.852626
  C     -2.979179    1.514662    0.032825
  H      2.141601    0.877775    1.429344
  C      3.018460    1.426092   -0.455727
  C      3.168815   -0.847081    0.660293
  H      1.561349   -0.903887   -1.922942
  H     -1.201953   -1.099220   -2.160354
  H     -2.699267    2.021264   -0.903510
  H     -2.493032    2.039341    0.869693
  H     -4.069868    1.594090    0.156927
  H     -2.473272   -0.241285    2.155360
  H     -2.653145   -1.751639    1.220544
  H     -4.044709   -0.649721    1.412691
  H      3.378309   -1.351595   -0.296957
  H      2.649131   -1.557021    1.321510
  H      4.133220   -0.586075    1.121320
  H      3.200545    1.003668   -1.457229
  H      3.989614    1.722070   -0.031291
  H      2.399322    2.329303   -0.567308

 Multiplicity           Mult            ....    1
 Number of Electrons    NEL             ....   84
 Basis Dimension        Dim             ....  234

ORBITAL ENERGIES
----------------

  NO   OCC          E(Eh)            E(eV)
   0   2.0000     -14.447111      -393.1259
   1   2.0000     -14.445873      -393.0922
   2   2.0000     -10.309285      -280.5299
   3   2.0000     -10.308229      -280.5012
   4   2.0000     -10.294482      -280.1271
   5   2.0000     -10.292849      -280.0827
   6   2.0000     -10.275531      -279.6114
   7   2.0000     -10.262782      -279.2645
   8   2.0000     -10.262524      -279.2575
   9   2.0000     -10.260524      -279.2031
  10   2.0000     -10.260453      -279.2011
  11   2.0000      -1.146908       -31.2089
  12   2.0000      -1.039672       -28.2909
  13   2.0000      -0.934441       -25.4274
  14   2.0000      -0.883713       -24.0470
  15   2.0000      -0.861269       -23.4363
  16   2.0000      -0.807941       -21.9852
  17   2.0000      -0.805777       -21.9263
  18   2.0000      -0.768084       -20.9006
  19   2.0000      -0.733200       -19.9514
  20   2.0000      -0.681749       -18.5513
  21   2.0000      -0.659288       -17.9401
  22   2.0000      -0.622401       -16.9364
  23   2.0000      -0.576257       -15.6807
  24   2.0000      -0.575169       -15.6511
  25   2.0000      -0.565864       -15.3979
  26   2.0000      -0.554836       -15.0978
  27   2.0000      -0.534135       -14.5346
  28   2.0000      -0.531591       -14.4653
  29   2.0000      -0.528546       -14.3825
  30   2.0000      -0.498693       -13.5701
  31   2.0000      -0.490138       -13.3373
  32   2.0000      -0.481627       -13.1057
  33   2.0000      -0.480280       -13.0691
  34   2.0000      -0.467434       -12.7195
  35   2.0000      -0.455469       -12.3939
  36   2.0000      -0.445681       -12.1276
  37   2.0000      -0.439256       -11.9528
  38   2.0000      -0.435707       -11.8562
  39   2.0000      -0.370880       -10.0922
  40   2.0000      -0.323646        -8.8069
  41   2.0000      -0.322768        -8.7830
  42   0.0000       0.125695         3.4203
  43   0.0000       0.128541         3.4978
  44   0.0000       0.151079         4.1111
  45   0.0000       0.153754         4.1839
  46   0.0000       0.179606         4.8873

MULLIKEN ATOMIC CHARGES
-----------------------
   0 N :   -0.226005
   1 C :   -0.203942
   2 N :   -0.209806
   3 C :    0.008896
   4 C :    0.017009
   5 C :    0.002929
   6 C :   -0.001430
   7 C :   -0.008324
   8 H :    0.041729
   9 C :   -0.006787
  10 H :    0.027935
  11 C :   -0.012356
  12 C :   -0.016417
  13 H :    0.066982
  14 H :    0.064394
  15 H :    0.036405
  16 H :    0.027707
  17 H :    0.041891
  18 H :    0.027773
  19 H :    0.036992
  20 H :    0.041996
  21 H :    0.035726
  22 H :    0.040589
  23 H :    0.046562
  24 H :    0.034653
  25 H :    0.045977
  26 H :    0.038921
Sum of atomic charges:   -0.0000000

LOEWDIN ATOMIC CHARGES
----------------------
   0 N :    0.030286
   1 C :   -0.317018
   2 N :    0.035373
   3 C :   -0.040620
   4 C :   -0.034321
   5 C :    0.032578
   6 C :    0.027660
   7 C :   -0.060173
   8 H :    0.032998
   9 C :   -0.060112
  10 H :    0.028110
  11 C :   -0.061632
  12 C :   -0.061834
  13 H :    0.039884
  14 H :    0.041134
  15 H :    0.029541
  16 H :    0.024804
  17 H :    0.033660
  18 H :    0.024699
  19 H :    0.029668
  20 H :    0.033836
  21 H :    0.028932
  22 H :    0.030922
  23 H :    0.036539
  24 H :    0.028789
  25 H :    0.035949
  26 H :    0.030349

  Mayer bond orders larger than 0.100000
B(  0-N ,  1-C ) :   1.2447 B(  0-N ,  4-C ) :   1.1353 B(  0-N ,  5-C ) :   0.8952
B(  1-C ,  2-N ) :   1.2493 B(  2-N ,  3-C ) :   1.1237 B(  2-N ,  6-C ) :   0.9093
B(  3-C ,  4-C ) :   1.6203 B(  3-C , 13-H ) :   0.9872 B(  4-C , 14-H ) :   0.9900
B(  5-C ,  7-C ) :   1.0723 B(  5-C ,  8-H ) :   0.9445 B(  5-C ,  9-C ) :   1.0728
B(  6-C , 10-H ) :   0.9330 B(  6-C , 11-C ) :   1.0711 B(  6-C , 12-C ) :   1.0708
B(  7-C , 18-H ) :   0.9643 B(  7-C , 19-H ) :   0.9688 B(  7-C , 20-H ) :   0.9714
B(  9-C , 15-H ) :   0.9686 B(  9-C , 16-H ) :   0.9640 B(  9-C , 17-H ) :   0.9715
B( 11-C , 24-H ) :   0.9643 B( 11-C , 25-H ) :   0.9721 B( 11-C , 26-H ) :   0.9683
B( 12-C , 21-H ) :   0.9646 B( 12-C , 22-H ) :   0.9686 B( 12-C , 23-H ) :   0.9714

Dispersion correction           -0.004114111
FINAL SINGLE POINT ENERGY      -461.632353592494

DIPOLE MOMENT
-------------
                                X             Y             Z
Electronic contribution:     -0.56350      -1.91482      -2.96793
Nuclear contribution   :      0.73460       1.29518       1.75622
                        -----------------------------------------
Total Dipole Moment    :      0.17110      -0.61964      -1.21171
                        -----------------------------------------
Magnitude (a.u.)       :      1.37167
Magnitude (Debye)      :      3.48650

Dispersion correction in the Hessian             ... Starting D4

VIBRATIONAL FREQUENCIES
-----------------------

Scaling factor for frequencies =  1.000000000  (already applied!)

   0:         0.00 cm**-1
   1:         0.00 cm**-1
   2:         0.00 cm**-1
   3:         0.00 cm**-1
   4:         0.00 cm**-1
   5:         0.00 cm**-1
   6:        28.52 cm**-1
   7:        42.25 cm**-1
   8:       102.29 cm**-1
   9:       160.08 cm**-1
  10:       164.48 cm**-1
  11:       241.69 cm**-1
  12:       247.66 cm**-1
  13:       257.81 cm**-1
  14:       274.56 cm**-1
  15:       277.17 cm**-1
  16:       336.73 cm**-1
  17:       347.31 cm**-1
  18:       402.42 cm**-1
  19:       451.20 cm**-1
  20:       500.51 cm**-1
  21:       508.83 cm**-1
  22:       637.87 cm**-1
  23:       678.28 cm**-1
  24:       680.98 cm**-1
  25:       704.78 cm**-1
  26:       752.39 cm**-1
  27:       884.94 cm**-1
  28:       907.34 cm**-1
  29:       915.05 cm**-1
  30:       927.35 cm**-1
  31:       932.71 cm**-1
  32:       956.90 cm**-1
  33:       959.82 cm**-1
  34:      1013.79 cm**-1
  35:      1025.21 cm**-1
  36:      1081.68 cm**-1
  37:      1090.27 cm**-1
  38:      1128.05 cm**-1
  39:      1169.18 cm**-1
  40:      1170.36 cm**-1
  41:      1176.81 cm**-1
  42:      1193.03 cm**-1
  43:      1234.74 cm**-1
  44:      1318.59 cm**-1
  45:      1334.88 cm**-1
  46:      1345.95 cm**-1
  47:      1349.39 cm**-1
  48:      1392.31 cm**-1
  49:      1397.22 cm**-1
  50:      1399.64 cm**-1
  51:      1400.11 cm**-1
  52:      1406.82 cm**-1
  53:      1428.73 cm**-1
  54:      1445.56 cm**-1
  55:      1446.13 cm**-1
  56:      1448.06 cm**-1
  57:      1451.77 cm**-1
  58:      1457.81 cm**-1
  59:      1459.67 cm**-1
  60:      1460.82 cm**-1
  61:      1475.71 cm**-1
  62:      1482.15 cm**-1
  63:      1486.13 cm**-1
  64:      1650.99 cm**-1
  65:      3063.54 cm**-1
  66:      3065.86 cm**-1
  67:      3066.13 cm**-1
  68:      3068.73 cm**-1
  69:      3109.38 cm**-1
  70:      3128.88 cm**-1
  71:      3163.76 cm**-1
  72:      3167.04 cm**-1
  73:      3171.22 cm**-1
  74:      3172.51 cm**-1
  75:      3174.09 cm**-1
  76:      3174.83 cm**-1
  77:      3176.63 cm**-1
  78:      3177.26 cm**-1
  79:      3280.86 cm**-1
  80:      3301.80 cm**-1

IR SPECTRUM
-----------

 Mode   freq       eps      Int      T**2         TX        TY        TZ
       cm**-1   L/(mol*cm) km/mol    a.u.
----------------------------------------------------------------------------
  6:     28.52   0.000191    0.97  0.002093  (-0.001484  0.040911 -0.020425)
  7:     42.25   0.000272    1.37  0.002006  (-0.001570  0.040301 -0.019486)
  8:    102.29   0.002978   15.05  0.009085  (-0.001810  0.084545 -0.043978)
  9:    160.08   0.000414    2.09  0.000807  (-0.000043  0.011988  0.025753)
 10:    164.48   0.000078    0.40  0.000148  ( 0.001588 -0.008720  0.008359)
 11:    241.69   0.000013    0.06  0.000016  ( 0.002994 -0.002698  0.000116)
 12:    247.66   0.000133    0.67  0.000168  (-0.010586 -0.004855  0.005698)
 13:    257.81   0.000438    2.21  0.000530  ( 0.022066 -0.005450 -0.003682)
 14:    274.56   0.000025    0.13  0.000029  ( 0.005169  0.001356  0.000057)
 15:    277.17   0.000074    0.37  0.000083  ( 0.008467 -0.000923 -0.003291)
 16:    336.73   0.000720    3.64  0.000667  (-0.023239 -0.007249 -0.008621)
 17:    347.31   0.000876    4.43  0.000787  (-0.027899 -0.002516  0.001618)
 18:    402.42   0.004309   21.78  0.003342  (-0.003581  0.051054 -0.026875)
 19:    451.20   0.000023    0.12  0.000016  (-0.002455  0.002876 -0.001210)
 20:    500.51   0.000381    1.93  0.000238  (-0.015349 -0.000964 -0.001079)
 21:    508.83   0.001007    5.09  0.000617  ( 0.021791  0.006815  0.009806)
 22:    637.87   0.000312    1.58  0.000153  (-0.010726  0.002860  0.005415)
 23:    678.28   0.000074    0.37  0.000034  (-0.003882  0.003933 -0.001868)
 24:    680.98   0.002281   11.53  0.001045  ( 0.001336 -0.028401  0.015392)
 25:    704.78   0.003018   15.25  0.001337  (-0.036335  0.001203  0.003851)
 26:    752.39   0.014423   72.89  0.005982  (-0.001071  0.067940 -0.036946)
 27:    884.94   0.000002    0.01  0.000001  ( 0.000705  0.000395 -0.000281)
 28:    907.34   0.000745    3.77  0.000256  (-0.011872 -0.005400 -0.009282)
 29:    915.05   0.001283    6.48  0.000438  (-0.020406 -0.002164 -0.004053)
 30:    927.35   0.000445    2.25  0.000150  ( 0.000277  0.011211 -0.004910)
 31:    932.71   0.000293    1.48  0.000098  (-0.001224  0.008650 -0.004655)
 32:    956.90   0.000081    0.41  0.000026  ( 0.000823 -0.004695  0.001900)
 33:    959.82   0.000124    0.62  0.000040  ( 0.000280 -0.005508  0.003122)
 34:   1013.79   0.003863   19.52  0.001189  (-0.034432  0.000566  0.001830)
 35:   1025.21   0.000131    0.66  0.000040  ( 0.002170  0.003403  0.004867)
 36:   1081.68   0.000202    1.02  0.000058  ( 0.007543 -0.000141 -0.001128)
 37:   1090.27   0.005453   27.56  0.001561  (-0.004374  0.018403  0.034686)
 38:   1128.05   0.004758   24.04  0.001316  ( 0.034121  0.005873  0.010835)
 39:   1169.18   0.001652    8.35  0.000441  (-0.001283  0.017097 -0.012119)
 40:   1170.36   0.002048   10.35  0.000546  ( 0.001565 -0.020848  0.010438)
 41:   1176.81   0.002045   10.33  0.000542  (-0.016128 -0.009494 -0.013856)
 42:   1193.03   0.000864    4.36  0.000226  (-0.014732 -0.002932 -0.000516)
 43:   1234.74   0.019595   99.03  0.004952  (-0.070082 -0.004209 -0.004813)
 44:   1318.59   0.000442    2.23  0.000105  ( 0.009566 -0.001423 -0.003336)
 45:   1334.88   0.015242   77.03  0.003563  ( 0.059195  0.004554  0.006208)
 46:   1345.95   0.000034    0.17  0.000008  ( 0.001985 -0.001651  0.001153)
 47:   1349.39   0.000133    0.67  0.000031  ( 0.004259  0.003491 -0.000573)
 48:   1392.31   0.001698    8.58  0.000381  (-0.012369  0.005213  0.014155)
 49:   1397.22   0.001294    6.54  0.000289  ( 0.016336  0.004248 -0.002037)
 50:   1399.64   0.003099   15.66  0.000691  ( 0.002537 -0.023630  0.011227)
 51:   1400.11   0.006688   33.80  0.001491  (-0.002949  0.034875 -0.016301)
 52:   1406.82   0.003503   17.70  0.000777  (-0.014865  0.008590  0.021960)
 53:   1428.73   0.000900    4.55  0.000196  ( 0.009217  0.006572  0.008267)
 54:   1445.56   0.000337    1.70  0.000073  (-0.002928  0.007221  0.003471)
 55:   1446.13   0.000858    4.34  0.000185  (-0.006796  0.004732  0.010798)
 56:   1448.06   0.008534   43.13  0.001839  ( 0.023920 -0.016434 -0.031574)
 57:   1451.77   0.000069    0.35  0.000015  (-0.000594  0.003226 -0.002003)
 58:   1457.81   0.001228    6.20  0.000263  ( 0.014240 -0.001548  0.007590)
 59:   1459.67   0.002013   10.17  0.000430  (-0.014746  0.004360  0.013928)
 60:   1460.82   0.007796   39.40  0.001665  ( 0.035063  0.011646  0.017332)
 61:   1475.71   0.002923   14.77  0.000618  ( 0.023828  0.004189  0.005733)
 62:   1482.15   0.014761   74.60  0.003108  ( 0.055720  0.001009 -0.001508)
 63:   1486.13   0.004681   23.65  0.000983  (-0.023772  0.009529  0.018081)
 64:   1650.99   0.000149    0.75  0.000028  ( 0.000292  0.002727  0.004550)
 65:   3063.54   0.004954   25.04  0.000505  ( 0.001020  0.019500 -0.011106)
 66:   3065.86   0.002910   14.70  0.000296  (-0.014568  0.007175  0.005697)
 67:   3066.13   0.005274   26.65  0.000537  (-0.001755  0.021144 -0.009307)
 68:   3068.73   0.002376   12.01  0.000242  ( 0.010483 -0.000297 -0.011474)
 69:   3109.38   0.004340   21.93  0.000436  (-0.012121 -0.008481 -0.014722)
 70:   3128.88   0.001231    6.22  0.000123  (-0.002910 -0.004334 -0.009773)
 71:   3163.76   0.001502    7.59  0.000148  ( 0.000818 -0.011529  0.003813)
 72:   3167.04   0.009661   48.82  0.000952  (-0.002451  0.013068  0.027842)
 73:   3171.22   0.004171   21.08  0.000410  (-0.004265 -0.009833  0.017193)
 74:   3172.51   0.005003   25.28  0.000492  ( 0.012368 -0.014056 -0.011897)
 75:   3174.09   0.001583    8.00  0.000156  (-0.010843  0.006156  0.000459)
 76:   3174.83   0.002539   12.83  0.000250  ( 0.007415 -0.010560  0.009114)
 77:   3176.63   0.007936   40.10  0.000780  (-0.025356 -0.009352 -0.007013)
 78:   3177.26   0.008933   45.14  0.000877  (-0.025087 -0.009629 -0.012461)
 79:   3280.86   0.001516    7.66  0.000144  (-0.012005 -0.000361  0.000012)
 80:   3301.80   0.000289    1.46  0.000027  (-0.002157  0.002103  0.004275)

--------------------------
THERMOCHEMISTRY AT 298.15K
--------------------------

Temperature         ... 298.15 K
Pressure            ... 1.00 atm
Total Mass          ... 152.24 AMU

Throughout the following assumptions are being made:
  (1) The electronic state is orbitally nondegenerate
  (2) There are no thermally accessible electronically excited states
  (3) Hindered rotations indicated by low frequency modes are not
      treated as such but are treated as vibrations and this may
      cause some error
  (4) All equations used are the standard statistical mechanics
      equations for an ideal gas
  (5) All vibrations are strictly harmonic

freq.      28.52  E(vib)   ...       0.55
freq.      42.25  E(vib)   ...       0.53
freq.     102.29  E(vib)   ...       0.46
freq.     160.08  E(vib)   ...       0.39
freq.     164.48  E(vib)   ...       0.39
freq.     241.69  E(vib)   ...       0.31
freq.     247.66  E(vib)   ...       0.31
freq.     257.81  E(vib)   ...       0.30
freq.     274.56  E(vib)   ...       0.28
freq.     277.17  E(vib)   ...       0.28
freq.     336.73  E(vib)   ...       0.24
freq.     347.31  E(vib)   ...       0.23
freq.     402.42  E(vib)   ...       0.19
freq.     451.20  E(vib)   ...       0.16
freq.     500.51  E(vib)   ...       0.14
freq.     508.83  E(vib)   ...       0.14
freq.     637.87  E(vib)   ...       0.09
freq.     678.28  E(vib)   ...       0.08
freq.     680.98  E(vib)   ...       0.08
freq.     704.78  E(vib)   ...       0.07
freq.     752.39  E(vib)   ...       0.06
freq.     884.94  E(vib)   ...       0.04
freq.     907.34  E(vib)   ...       0.03
freq.     915.05  E(vib)   ...       0.03
freq.     927.35  E(vib)   ...       0.03
freq.     932.71  E(vib)   ...       0.03
freq.     956.90  E(vib)   ...       0.03
freq.     959.82  E(vib)   ...       0.03
freq.    1013.79  E(vib)   ...       0.02
freq.    1025.21  E(vib)   ...       0.02
freq.    1081.68  E(vib)   ...       0.02
freq.    1090.27  E(vib)   ...       0.02
freq.    1128.05  E(vib)   ...       0.01
freq.    1169.18  E(vib)   ...       0.01
freq.    1170.36  E(vib)   ...       0.01
freq.    1176.81  E(vib)   ...       0.01
freq.    1193.03  E(vib)   ...       0.01
freq.    1234.74  E(vib)   ...       0.01
freq.    1318.59  E(vib)   ...       0.01
freq.    1334.88  E(vib)   ...       0.01
freq.    1345.95  E(vib)   ...       0.01
freq.    1349.39  E(vib)   ...       0.01
freq.    1392.31  E(vib)   ...       0.00
freq.    1397.22  E(vib)   ...       0.00
freq.    1399.64  E(vib)   ...       0.00
freq.    1400.11  E(vib)   ...       0.00
freq.    1406.82  E(vib)   ...       0.00
freq.    1428.73  E(vib)   ...       0.00
freq.    1445.56  E(vib)   ...       0.00
freq.    1446.13  E(vib)   ...       0.00
freq.    1448.06  E(vib)   ...       0.00
freq.    1451.77  E(vib)   ...       0.00
freq.    1457.81  E(vib)   ...       0.00
freq.    1459.67  E(vib)   ...       0.00
freq.    1460.82  E(vib)   ...       0.00
freq.    1475.71  E(vib)   ...       0.00
freq.    1482.15  E(vib)   ...       0.00
freq.    1486.13  E(vib)   ...       0.00
freq.    1650.99  E(vib)   ...       0.00
freq.    3063.54  E(vib)   ...       0.00
freq.    3065.86  E(vib)   ...       0.00
freq.    3066.13  E(vib)   ...       0.00
freq.    3068.73  E(vib)   ...       0.00
freq.    3109.38  E(vib)   ...       0.00
freq.    3128.88  E(vib)   ...       0.00
freq.    3163.76  E(vib)   ...       0.00
freq.    3167.04  E(vib)   ...       0.00
freq.    3171.22  E(vib)   ...       0.00
freq.    3172.51  E(vib)   ...       0.00
freq.    3174.09  E(vib)   ...       0.00
freq.    3174.83  E(vib)   ...       0.00
freq.    3176.63  E(vib)   ...       0.00
freq.    3177.26  E(vib)   ...       0.00
freq.    3280.86  E(vib)   ...       0.00
freq.    3301.80  E(vib)   ...       0.00

------------
INNER ENERGY
------------

The inner energy is: U= E(el) + E(ZPE) + E(vib) + E(rot) + E(trans)
    E(el)   - is the total energy from the electronic structure calculation
              = E(kin-el) + E(nuc-el) + E(el-el) + E(nuc-nuc)
    E(ZPE)  - the the zero temperature vibrational energy from the frequency calculation
    E(vib)  - the the finite temperature correction to E(ZPE) due to population
              of excited vibrational states
    E(rot)  - is the rotational thermal energy
    E(trans)- is the translational thermal energy

Summary of contributions to the inner energy U:
Electronic energy                ...   -461.63235359 Eh
Zero point energy                ...      0.24163612 Eh     151.63 kcal/mol
Thermal vibrational correction   ...      0.00912920 Eh       5.73 kcal/mol
Thermal rotational correction    ...      0.00141627 Eh       0.89 kcal/mol
Thermal translational correction ...      0.00141627 Eh       0.89 kcal/mol
-----------------------------------------------------------------------
Total thermal energy                   -461.37875573 Eh

Summary of corrections to the electronic energy:
(perhaps to be used in another calculation)
Total thermal correction                  0.01196174 Eh       7.51 kcal/mol
Non-thermal (ZPE) correction              0.24163612 Eh     151.63 kcal/mol
-----------------------------------------------------------------------
Total correction                          0.25359786 Eh     159.13 kcal/mol

--------
ENTHALPY
--------

The enthalpy is H = U + kB*T
                kB is Boltzmann's constant
Total free energy                 ...   -461.37875573 Eh
Thermal Enthalpy correction       ...      0.00094421 Eh       0.59 kcal/mol
-----------------------------------------------------------------------
Total Enthalpy                    ...   -461.37781152 Eh

Note: Only C1 symmetry has been detected, increase convergence thresholds
      if your molecule has a higher symmetry. Symmetry factor of 1.0 is
      used for the rotational entropy correction.

Note: Rotational entropy computed according to Herzberg
Infrared and Raman Spectra, Chapter V,1, Van Nostrand Reinhold, 1945
Point Group:  C1, Symmetry Number:   1
Rotational constants in cm-1:     0.079829     0.019234     0.019032

Vibrational entropy computed according to the QRRHO of S. Grimme
Chem.Eur.J. 2012 18 9955

-------
ENTROPY
-------

The entropy contributions are T*S = T*(S(el)+S(vib)+S(rot)+S(trans))
     S(el)   - electronic entropy
     S(vib)  - vibrational entropy
     S(rot)  - rotational entropy
     S(trans)- translational entropy
The entropies will be listed as multiplied by the temperature to get
units of energy

                             ****ORCA TERMINATED NORMALLY****
TOTAL RUN TIME: 0 days 3 hours 1 minutes 25 seconds 912 msec
