                         Program Version 5.0.4 -  RELEASE  -
|  1> # ORCA 5.0.4 - /users/bwb16179/postgrad/2024_03/DFT_Crest_Conformers/Opt/deprot/4_deprot_aq_3.inp # write input file
|  2> # Basic Mode
|  3> #
|  4> ! Opt Freq wB97X Def2-SVP D4 SlowConv TightSCF Defgrid2 Def2/J RIJCOSX CPCM(Water)
|  5>
|  6>
|  7>
|  8> %maxcore 4500
|  9>
| 10> %geom
| 11> Maxiter 150
| 12> END
| 13>
| 14> * xyzfile 0 1 4_deprot_aq_3.xyz
| 15>
| 16>                          ****END OF INPUT****
 Total Charge           Charge          ....    0
 Multiplicity           Mult            ....    1
 Number of Electrons    NEL             ....   84
Dispersion correction           -0.004147532
FINAL SINGLE POINT ENERGY      -461.628377299478
Dispersion correction            ... Starting D4
Dispersion correction           -0.004117749
FINAL SINGLE POINT ENERGY      -461.631991520198
Dispersion correction            ... Starting D4
Dispersion correction           -0.004115024
FINAL SINGLE POINT ENERGY      -461.632248742172
Dispersion correction            ... Starting D4
FINAL SINGLE POINT ENERGY      -461.632336302619
FINAL SINGLE POINT ENERGY      -461.632351062595
FINAL SINGLE POINT ENERGY      -461.632364905189
FINAL SINGLE POINT ENERGY      -461.632373062263
Dispersion correction           -0.004114248
FINAL SINGLE POINT ENERGY      -461.632380412810
Dispersion correction            ... Starting D4
Dispersion correction           -0.004114164
FINAL SINGLE POINT ENERGY      -461.632385131203
Dispersion correction            ... Starting D4
                    ***********************HURRAY********************

CARTESIAN COORDINATES (ANGSTROEM)
---------------------------------
  N     -1.102131    0.121594   -0.262170
  C     -0.155701   -0.111118    0.685338
  N      1.004540    0.004361   -0.011557
  C      0.792739    0.291362   -1.351425
  C     -0.551914    0.363280   -1.509422
  C     -2.549060    0.069298   -0.015643
  C      2.329931   -0.153910    0.593204
  C     -3.007955   -1.370772    0.183753
  H     -3.014238    0.462365   -0.934133
  C     -2.942917    0.971513    1.146695
  H      2.120488   -0.357983    1.653932
  C      3.134660    1.136770    0.486533
  C      3.063369   -1.348729   -0.005882
  H      1.599468    0.424409   -2.070854
  H     -1.158905    0.568489   -2.390288
  H     -4.037850    0.984578    1.257037
  H     -2.598297    2.003136    0.977771
  H     -2.502015    0.608148    2.087093
  H     -2.544158   -1.796869    1.087385
  H     -2.727753   -1.995943   -0.678069
  H     -4.101618   -1.412288    0.300626
  H      4.020006   -1.504855    0.515202
  H      3.282620   -1.185271   -1.073684
  H      2.461603   -2.265323    0.089554
  H      4.096246    1.027895    1.010349
  H      2.587206    1.978787    0.936804
  H      3.350398    1.384132   -0.565672

 Multiplicity           Mult            ....    1
 Number of Electrons    NEL             ....   84
 Basis Dimension        Dim             ....  234

ORBITAL ENERGIES
----------------

  NO   OCC          E(Eh)            E(eV)
   0   2.0000     -14.447049      -393.1242
   1   2.0000     -14.445869      -393.0921
   2   2.0000     -10.309279      -280.5297
   3   2.0000     -10.308202      -280.5004
   4   2.0000     -10.294388      -280.1245
   5   2.0000     -10.292999      -280.0867
   6   2.0000     -10.275577      -279.6127
   7   2.0000     -10.262713      -279.2626
   8   2.0000     -10.262618      -279.2600
   9   2.0000     -10.260856      -279.2121
  10   2.0000     -10.260332      -279.1978
  11   2.0000      -1.146978       -31.2109
  12   2.0000      -1.039803       -28.2945
  13   2.0000      -0.934520       -25.4296
  14   2.0000      -0.883723       -24.0473
  15   2.0000      -0.861451       -23.4413
  16   2.0000      -0.807835       -21.9823
  17   2.0000      -0.805824       -21.9276
  18   2.0000      -0.768147       -20.9023
  19   2.0000      -0.733234       -19.9523
  20   2.0000      -0.681628       -18.5481
  21   2.0000      -0.659308       -17.9407
  22   2.0000      -0.622475       -16.9384
  23   2.0000      -0.578694       -15.7471
  24   2.0000      -0.573585       -15.6080
  25   2.0000      -0.565432       -15.3862
  26   2.0000      -0.554993       -15.1021
  27   2.0000      -0.535405       -14.5691
  28   2.0000      -0.530506       -14.4358
  29   2.0000      -0.528357       -14.3773
  30   2.0000      -0.498528       -13.5656
  31   2.0000      -0.490020       -13.3341
  32   2.0000      -0.481842       -13.1116
  33   2.0000      -0.480085       -13.0638
  34   2.0000      -0.467406       -12.7188
  35   2.0000      -0.455530       -12.3956
  36   2.0000      -0.445717       -12.1286
  37   2.0000      -0.439534       -11.9603
  38   2.0000      -0.435866       -11.8605
  39   2.0000      -0.370658       -10.0861
  40   2.0000      -0.323955        -8.8153
  41   2.0000      -0.322689        -8.7808
  42   0.0000       0.125389         3.4120
  43   0.0000       0.128458         3.4955
  44   0.0000       0.150962         4.1079
  45   0.0000       0.153677         4.1818
  46   0.0000       0.179548         4.8858

MULLIKEN ATOMIC CHARGES
-----------------------
   0 N :   -0.225657
   1 C :   -0.204537
   2 N :   -0.209686
   3 C :    0.009693
   4 C :    0.017064
   5 C :   -0.000088
   6 C :   -0.002565
   7 C :   -0.003763
   8 H :    0.041912
   9 C :   -0.009573
  10 H :    0.027960
  11 C :   -0.014272
  12 C :   -0.013518
  13 H :    0.067184
  14 H :    0.064045
  15 H :    0.041901
  16 H :    0.036822
  17 H :    0.028404
  18 H :    0.027977
  19 H :    0.036265
  20 H :    0.042412
  21 H :    0.046187
  22 H :    0.034874
  23 H :    0.039700
  24 H :    0.046032
  25 H :    0.040143
  26 H :    0.035085
Sum of atomic charges:   -0.0000000

LOEWDIN ATOMIC CHARGES
----------------------
   0 N :    0.030198
   1 C :   -0.317304
   2 N :    0.035207
   3 C :   -0.040012
   4 C :   -0.034393
   5 C :    0.032026
   6 C :    0.027450
   7 C :   -0.060260
   8 H :    0.032892
   9 C :   -0.059725
  10 H :    0.027991
  11 C :   -0.061636
  12 C :   -0.061669
  13 H :    0.039939
  14 H :    0.041144
  15 H :    0.033829
  16 H :    0.029613
  17 H :    0.024438
  18 H :    0.025591
  19 H :    0.029474
  20 H :    0.033830
  21 H :    0.036227
  22 H :    0.028804
  23 H :    0.030562
  24 H :    0.036216
  25 H :    0.030711
  26 H :    0.028857

  Mayer bond orders larger than 0.100000
B(  0-N ,  1-C ) :   1.2452 B(  0-N ,  4-C ) :   1.1347 B(  0-N ,  5-C ) :   0.8966
B(  1-C ,  2-N ) :   1.2480 B(  2-N ,  3-C ) :   1.1237 B(  2-N ,  6-C ) :   0.9095
B(  3-C ,  4-C ) :   1.6201 B(  3-C , 13-H ) :   0.9872 B(  4-C , 14-H ) :   0.9902
B(  5-C ,  7-C ) :   1.0738 B(  5-C ,  8-H ) :   0.9445 B(  5-C ,  9-C ) :   1.0711
B(  6-C , 10-H ) :   0.9329 B(  6-C , 11-C ) :   1.0708 B(  6-C , 12-C ) :   1.0710
B(  7-C , 18-H ) :   0.9643 B(  7-C , 19-H ) :   0.9679 B(  7-C , 20-H ) :   0.9721
B(  9-C , 15-H ) :   0.9707 B(  9-C , 16-H ) :   0.9693 B(  9-C , 17-H ) :   0.9637
B( 11-C , 24-H ) :   0.9718 B( 11-C , 25-H ) :   0.9685 B( 11-C , 26-H ) :   0.9643
B( 12-C , 21-H ) :   0.9718 B( 12-C , 22-H ) :   0.9644 B( 12-C , 23-H ) :   0.9684

Dispersion correction           -0.004114142
FINAL SINGLE POINT ENERGY      -461.632389158316

DIPOLE MOMENT
-------------
                                X             Y             Z
Electronic contribution:     -0.50908       1.16052      -3.30627
Nuclear contribution   :      0.69906      -0.89584       1.97193
                        -----------------------------------------
Total Dipole Moment    :      0.18998       0.26468      -1.33434
                        -----------------------------------------
Magnitude (a.u.)       :      1.37354
Magnitude (Debye)      :      3.49127

Dispersion correction in the Hessian             ... Starting D4

VIBRATIONAL FREQUENCIES
-----------------------

Scaling factor for frequencies =  1.000000000  (already applied!)

   0:         0.00 cm**-1
   1:         0.00 cm**-1
   2:         0.00 cm**-1
   3:         0.00 cm**-1
   4:         0.00 cm**-1
   5:         0.00 cm**-1
   6:        29.31 cm**-1
   7:        47.02 cm**-1
   8:       103.29 cm**-1
   9:       158.58 cm**-1
  10:       162.72 cm**-1
  11:       225.08 cm**-1
  12:       229.48 cm**-1
  13:       244.16 cm**-1
  14:       263.21 cm**-1
  15:       273.55 cm**-1
  16:       338.66 cm**-1
  17:       349.68 cm**-1
  18:       404.47 cm**-1
  19:       451.27 cm**-1
  20:       502.48 cm**-1
  21:       510.72 cm**-1
  22:       640.58 cm**-1
  23:       678.90 cm**-1
  24:       680.21 cm**-1
  25:       706.09 cm**-1
  26:       752.24 cm**-1
  27:       884.78 cm**-1
  28:       909.72 cm**-1
  29:       917.08 cm**-1
  30:       932.04 cm**-1
  31:       933.85 cm**-1
  32:       960.46 cm**-1
  33:       960.75 cm**-1
  34:      1015.41 cm**-1
  35:      1027.37 cm**-1
  36:      1084.20 cm**-1
  37:      1097.45 cm**-1
  38:      1129.06 cm**-1
  39:      1169.25 cm**-1
  40:      1169.37 cm**-1
  41:      1178.65 cm**-1
  42:      1194.05 cm**-1
  43:      1237.69 cm**-1
  44:      1319.09 cm**-1
  45:      1335.03 cm**-1
  46:      1347.11 cm**-1
  47:      1349.43 cm**-1
  48:      1394.62 cm**-1
  49:      1399.15 cm**-1
  50:      1400.44 cm**-1
  51:      1401.60 cm**-1
  52:      1407.82 cm**-1
  53:      1428.21 cm**-1
  54:      1443.89 cm**-1
  55:      1445.03 cm**-1
  56:      1447.54 cm**-1
  57:      1450.29 cm**-1
  58:      1456.15 cm**-1
  59:      1458.45 cm**-1
  60:      1459.94 cm**-1
  61:      1475.34 cm**-1
  62:      1482.91 cm**-1
  63:      1485.10 cm**-1
  64:      1652.62 cm**-1
  65:      3062.69 cm**-1
  66:      3063.70 cm**-1
  67:      3065.31 cm**-1
  68:      3069.81 cm**-1
  69:      3107.35 cm**-1
  70:      3129.62 cm**-1
  71:      3162.51 cm**-1
  72:      3166.48 cm**-1
  73:      3168.44 cm**-1
  74:      3171.56 cm**-1
  75:      3173.13 cm**-1
  76:      3174.72 cm**-1
  77:      3176.39 cm**-1
  78:      3179.45 cm**-1
  79:      3280.14 cm**-1
  80:      3301.12 cm**-1

IR SPECTRUM
-----------

 Mode   freq       eps      Int      T**2         TX        TY        TZ
       cm**-1   L/(mol*cm) km/mol    a.u.
----------------------------------------------------------------------------
  6:     29.31   0.000031    0.15  0.000325  ( 0.002686  0.017261  0.004454)
  7:     47.02   0.000329    1.66  0.002182  (-0.005306 -0.045156 -0.010719)
  8:    103.29   0.003099   15.66  0.009363  ( 0.000865  0.094898  0.018890)
  9:    158.58   0.000370    1.87  0.000729  (-0.000719  0.003943 -0.026692)
 10:    162.72   0.000082    0.41  0.000157  (-0.003932 -0.010811  0.004953)
 11:    225.08   0.000042    0.21  0.000058  ( 0.002968 -0.006690 -0.002176)
 12:    229.48   0.000045    0.23  0.000061  (-0.000796 -0.007670  0.001057)
 13:    244.16   0.000280    1.42  0.000358  (-0.018332 -0.003726  0.002875)
 14:    263.21   0.000158    0.80  0.000188  ( 0.013078  0.002644 -0.003105)
 15:    273.55   0.000168    0.85  0.000192  ( 0.012975  0.000307 -0.004869)
 16:    338.66   0.000754    3.81  0.000695  (-0.022713  0.009417 -0.009497)
 17:    349.68   0.000907    4.58  0.000809  (-0.028152  0.003983  0.000941)
 18:    404.47   0.004203   21.24  0.003243  (-0.003510 -0.055305 -0.013121)
 19:    451.27   0.000013    0.07  0.000009  (-0.000972 -0.002711  0.000956)
 20:    502.48   0.000447    2.26  0.000278  ( 0.016525 -0.001212  0.001810)
 21:    510.72   0.000974    4.92  0.000595  ( 0.021004 -0.000995  0.012366)
 22:    640.58   0.000302    1.53  0.000147  (-0.010664 -0.002512  0.005218)
 23:    678.90   0.000047    0.24  0.000021  ( 0.003718  0.002759 -0.000188)
 24:    680.21   0.002333   11.79  0.001070  ( 0.002977 -0.031604 -0.007904)
 25:    706.09   0.003061   15.47  0.001353  (-0.036388 -0.004803  0.002360)
 26:    752.24   0.014330   72.42  0.005945  (-0.002873 -0.075260 -0.016504)
 27:    884.78   0.000011    0.06  0.000004  (-0.001950  0.000245  0.000190)
 28:    909.72   0.000792    4.00  0.000272  (-0.012118  0.002528 -0.010887)
 29:    917.08   0.001241    6.27  0.000422  (-0.020013  0.001628 -0.004362)
 30:    932.04   0.000433    2.19  0.000145  ( 0.000930 -0.011437 -0.003656)
 31:    933.85   0.000300    1.52  0.000100  ( 0.000381  0.009716  0.002393)
 32:    960.46   0.000040    0.20  0.000013  (-0.000423 -0.002825 -0.002229)
 33:    960.75   0.000188    0.95  0.000061  ( 0.000793  0.007398  0.002398)
 34:   1015.41   0.003656   18.47  0.001123  (-0.033468  0.000855  0.001622)
 35:   1027.37   0.000210    1.06  0.000064  ( 0.002609 -0.001887  0.007307)
 36:   1084.20   0.000189    0.96  0.000054  ( 0.006885 -0.000115  0.002649)
 37:   1097.45   0.005331   26.94  0.001516  ( 0.006197  0.007063 -0.037783)
 38:   1129.06   0.004580   23.15  0.001266  ( 0.033209 -0.004093  0.012098)
 39:   1169.25   0.003031   15.32  0.000809  ( 0.000209  0.027437  0.007492)
 40:   1169.37   0.000670    3.39  0.000179  ( 0.001471  0.013158  0.001884)
 41:   1178.65   0.001997   10.09  0.000529  ( 0.014751 -0.006779  0.016284)
 42:   1194.05   0.000964    4.87  0.000252  (-0.015727  0.001311 -0.001671)
 43:   1237.69   0.019731   99.71  0.004975  ( 0.070056 -0.003248  0.007509)
 44:   1319.09   0.000674    3.41  0.000159  ( 0.012274  0.001281 -0.002672)
 45:   1335.03   0.015873   80.22  0.003710  (-0.060173  0.002266 -0.009193)
 46:   1347.11   0.000175    0.88  0.000041  ( 0.005725  0.002619  0.000947)
 47:   1349.43   0.000098    0.50  0.000023  (-0.001056  0.004615  0.000593)
 48:   1394.62   0.001765    8.92  0.000395  ( 0.013273  0.007674 -0.012644)
 49:   1399.15   0.001081    5.46  0.000241  (-0.015350 -0.001729 -0.001544)
 50:   1400.44   0.004354   22.00  0.000970  (-0.004022  0.029216  0.010018)
 51:   1401.60   0.005488   27.73  0.001222  (-0.002917 -0.033926 -0.007896)
 52:   1407.82   0.003728   18.84  0.000826  ( 0.016516  0.006852 -0.022509)
 53:   1428.21   0.000830    4.19  0.000181  ( 0.008522 -0.002340  0.010157)
 54:   1443.89   0.000125    0.63  0.000027  (-0.003269 -0.000501  0.004014)
 55:   1445.03   0.001128    5.70  0.000244  (-0.007578 -0.007103  0.011652)
 56:   1447.54   0.007644   38.63  0.001648  (-0.024473 -0.005460  0.031924)
 57:   1450.29   0.000862    4.35  0.000185  (-0.005420 -0.006908  0.010406)
 58:   1456.15   0.000189    0.95  0.000040  (-0.001826 -0.004791 -0.003767)
 59:   1458.45   0.001518    7.67  0.000325  ( 0.003983  0.002078 -0.017451)
 60:   1459.94   0.007752   39.18  0.001657  (-0.035896  0.006802 -0.017950)
 61:   1475.34   0.001586    8.02  0.000335  (-0.016704  0.001134 -0.007428)
 62:   1482.91   0.012518   63.26  0.002634  (-0.050948  0.002404 -0.005734)
 63:   1485.10   0.008889   44.92  0.001868  ( 0.038818  0.005119 -0.018299)
 64:   1652.62   0.000126    0.64  0.000024  ( 0.000700 -0.001750  0.004507)
 65:   3062.69   0.004737   23.94  0.000483  (-0.002571  0.020930  0.006162)
 66:   3063.70   0.004734   23.92  0.000482  (-0.006249 -0.021023 -0.001088)
 67:   3065.31   0.002726   13.77  0.000277  ( 0.013968  0.005727 -0.007042)
 68:   3069.81   0.003233   16.34  0.000329  ( 0.009070 -0.009139 -0.012763)
 69:   3107.35   0.004541   22.95  0.000456  (-0.012080  0.007712 -0.015833)
 70:   3129.62   0.001197    6.05  0.000119  (-0.002385  0.002041 -0.010464)
 71:   3162.51   0.001476    7.46  0.000146  (-0.000618 -0.011943  0.001631)
 72:   3166.48   0.009811   49.58  0.000967  (-0.001127 -0.004905  0.030684)
 73:   3168.44   0.004861   24.56  0.000479  ( 0.001047  0.004574  0.021371)
 74:   3171.56   0.001992   10.07  0.000196  (-0.004933  0.013038 -0.001299)
 75:   3173.13   0.007453   37.66  0.000733  ( 0.025207  0.008385 -0.005223)
 76:   3174.72   0.002378   12.02  0.000234  (-0.001674 -0.014697 -0.003869)
 77:   3176.39   0.007080   35.78  0.000696  ( 0.024840 -0.003216  0.008258)
 78:   3179.45   0.006325   31.96  0.000621  ( 0.017858 -0.011422  0.013093)
 79:   3280.14   0.001502    7.59  0.000143  ( 0.011932 -0.000296  0.000647)
 80:   3301.12   0.000283    1.43  0.000027  (-0.001982 -0.001058  0.004656)

--------------------------
THERMOCHEMISTRY AT 298.15K
--------------------------

Temperature         ... 298.15 K
Pressure            ... 1.00 atm
Total Mass          ... 152.24 AMU

Throughout the following assumptions are being made:
  (1) The electronic state is orbitally nondegenerate
  (2) There are no thermally accessible electronically excited states
  (3) Hindered rotations indicated by low frequency modes are not
      treated as such but are treated as vibrations and this may
      cause some error
  (4) All equations used are the standard statistical mechanics
      equations for an ideal gas
  (5) All vibrations are strictly harmonic

freq.      29.31  E(vib)   ...       0.55
freq.      47.02  E(vib)   ...       0.53
freq.     103.29  E(vib)   ...       0.46
freq.     158.58  E(vib)   ...       0.39
freq.     162.72  E(vib)   ...       0.39
freq.     225.08  E(vib)   ...       0.33
freq.     229.48  E(vib)   ...       0.32
freq.     244.16  E(vib)   ...       0.31
freq.     263.21  E(vib)   ...       0.29
freq.     273.55  E(vib)   ...       0.29
freq.     338.66  E(vib)   ...       0.23
freq.     349.68  E(vib)   ...       0.23
freq.     404.47  E(vib)   ...       0.19
freq.     451.27  E(vib)   ...       0.16
freq.     502.48  E(vib)   ...       0.14
freq.     510.72  E(vib)   ...       0.14
freq.     640.58  E(vib)   ...       0.09
freq.     678.90  E(vib)   ...       0.08
freq.     680.21  E(vib)   ...       0.08
freq.     706.09  E(vib)   ...       0.07
freq.     752.24  E(vib)   ...       0.06
freq.     884.78  E(vib)   ...       0.04
freq.     909.72  E(vib)   ...       0.03
freq.     917.08  E(vib)   ...       0.03
freq.     932.04  E(vib)   ...       0.03
freq.     933.85  E(vib)   ...       0.03
freq.     960.46  E(vib)   ...       0.03
freq.     960.75  E(vib)   ...       0.03
freq.    1015.41  E(vib)   ...       0.02
freq.    1027.37  E(vib)   ...       0.02
freq.    1084.20  E(vib)   ...       0.02
freq.    1097.45  E(vib)   ...       0.02
freq.    1129.06  E(vib)   ...       0.01
freq.    1169.25  E(vib)   ...       0.01
freq.    1169.37  E(vib)   ...       0.01
freq.    1178.65  E(vib)   ...       0.01
freq.    1194.05  E(vib)   ...       0.01
freq.    1237.69  E(vib)   ...       0.01
freq.    1319.09  E(vib)   ...       0.01
freq.    1335.03  E(vib)   ...       0.01
freq.    1347.11  E(vib)   ...       0.01
freq.    1349.43  E(vib)   ...       0.01
freq.    1394.62  E(vib)   ...       0.00
freq.    1399.15  E(vib)   ...       0.00
freq.    1400.44  E(vib)   ...       0.00
freq.    1401.60  E(vib)   ...       0.00
freq.    1407.82  E(vib)   ...       0.00
freq.    1428.21  E(vib)   ...       0.00
freq.    1443.89  E(vib)   ...       0.00
freq.    1445.03  E(vib)   ...       0.00
freq.    1447.54  E(vib)   ...       0.00
freq.    1450.29  E(vib)   ...       0.00
freq.    1456.15  E(vib)   ...       0.00
freq.    1458.45  E(vib)   ...       0.00
freq.    1459.94  E(vib)   ...       0.00
freq.    1475.34  E(vib)   ...       0.00
freq.    1482.91  E(vib)   ...       0.00
freq.    1485.10  E(vib)   ...       0.00
freq.    1652.62  E(vib)   ...       0.00
freq.    3062.69  E(vib)   ...       0.00
freq.    3063.70  E(vib)   ...       0.00
freq.    3065.31  E(vib)   ...       0.00
freq.    3069.81  E(vib)   ...       0.00
freq.    3107.35  E(vib)   ...       0.00
freq.    3129.62  E(vib)   ...       0.00
freq.    3162.51  E(vib)   ...       0.00
freq.    3166.48  E(vib)   ...       0.00
freq.    3168.44  E(vib)   ...       0.00
freq.    3171.56  E(vib)   ...       0.00
freq.    3173.13  E(vib)   ...       0.00
freq.    3174.72  E(vib)   ...       0.00
freq.    3176.39  E(vib)   ...       0.00
freq.    3179.45  E(vib)   ...       0.00
freq.    3280.14  E(vib)   ...       0.00
freq.    3301.12  E(vib)   ...       0.00

------------
INNER ENERGY
------------

The inner energy is: U= E(el) + E(ZPE) + E(vib) + E(rot) + E(trans)
    E(el)   - is the total energy from the electronic structure calculation
              = E(kin-el) + E(nuc-el) + E(el-el) + E(nuc-nuc)
    E(ZPE)  - the the zero temperature vibrational energy from the frequency calculation
    E(vib)  - the the finite temperature correction to E(ZPE) due to population
              of excited vibrational states
    E(rot)  - is the rotational thermal energy
    E(trans)- is the translational thermal energy

Summary of contributions to the inner energy U:
Electronic energy                ...   -461.63238916 Eh
Zero point energy                ...      0.24158847 Eh     151.60 kcal/mol
Thermal vibrational correction   ...      0.00919460 Eh       5.77 kcal/mol
Thermal rotational correction    ...      0.00141627 Eh       0.89 kcal/mol
Thermal translational correction ...      0.00141627 Eh       0.89 kcal/mol
-----------------------------------------------------------------------
Total thermal energy                   -461.37877355 Eh

Summary of corrections to the electronic energy:
(perhaps to be used in another calculation)
Total thermal correction                  0.01202714 Eh       7.55 kcal/mol
Non-thermal (ZPE) correction              0.24158847 Eh     151.60 kcal/mol
-----------------------------------------------------------------------
Total correction                          0.25361561 Eh     159.15 kcal/mol

--------
ENTHALPY
--------

The enthalpy is H = U + kB*T
                kB is Boltzmann's constant
Total free energy                 ...   -461.37877355 Eh
Thermal Enthalpy correction       ...      0.00094421 Eh       0.59 kcal/mol
-----------------------------------------------------------------------
Total Enthalpy                    ...   -461.37782934 Eh

Note: Only C1 symmetry has been detected, increase convergence thresholds
      if your molecule has a higher symmetry. Symmetry factor of 1.0 is
      used for the rotational entropy correction.

Note: Rotational entropy computed according to Herzberg
Infrared and Raman Spectra, Chapter V,1, Van Nostrand Reinhold, 1945
Point Group:  C1, Symmetry Number:   1
Rotational constants in cm-1:     0.080016     0.019254     0.018994

Vibrational entropy computed according to the QRRHO of S. Grimme
Chem.Eur.J. 2012 18 9955

-------
ENTROPY
-------

The entropy contributions are T*S = T*(S(el)+S(vib)+S(rot)+S(trans))
     S(el)   - electronic entropy
     S(vib)  - vibrational entropy
     S(rot)  - rotational entropy
     S(trans)- translational entropy
The entropies will be listed as multiplied by the temperature to get
units of energy

                             ****ORCA TERMINATED NORMALLY****
TOTAL RUN TIME: 0 days 1 hours 16 minutes 46 seconds 864 msec
