                         Program Version 5.0.4 -  RELEASE  -
|  1> # ORCA 5.0.4 - /users/bwb16179/postgrad/2024_03/DFT_Crest_Conformers/Opt/prot/4_prot_aq_4.inp # write input file
|  2> # Basic Mode
|  3> #
|  4> ! Opt Freq wB97X Def2-SVP D4 SlowConv TightSCF Defgrid2 Def2/J RIJCOSX CPCM(Water)
|  5>
|  6>
|  7>
|  8> %maxcore 4500
|  9>
| 10> %geom
| 11> Maxiter 150
| 12> END
| 13>
| 14> * xyzfile 1 1 4_prot_aq_4.xyz
| 15>
| 16>                          ****END OF INPUT****
 Total Charge           Charge          ....    1
 Multiplicity           Mult            ....    1
 Number of Electrons    NEL             ....   84
Dispersion correction           -0.004078321
FINAL SINGLE POINT ENERGY      -462.131798550031
Dispersion correction            ... Starting D4
Dispersion correction           -0.004058972
FINAL SINGLE POINT ENERGY      -462.135281074777
Dispersion correction            ... Starting D4
Dispersion correction           -0.004056251
FINAL SINGLE POINT ENERGY      -462.135465958191
Dispersion correction            ... Starting D4
FINAL SINGLE POINT ENERGY      -462.135536306802
Dispersion correction           -0.004056132
FINAL SINGLE POINT ENERGY      -462.135547213335
Dispersion correction            ... Starting D4
Dispersion correction           -0.004056428
FINAL SINGLE POINT ENERGY      -462.135550690560
Dispersion correction            ... Starting D4
                    ***********************HURRAY********************

CARTESIAN COORDINATES (ANGSTROEM)
---------------------------------
  N     -1.083488   -0.008553    0.412414
  C     -0.000008    0.018796   -0.361888
  N      1.083410   -0.009263    0.412478
  H      0.000043    0.058793   -1.452045
  C      0.680908   -0.058102    1.727324
  C     -0.681097   -0.057623    1.727285
  C     -2.486417    0.009504   -0.059663
  C      2.486375    0.007913   -0.059519
  C     -2.766134    1.292707   -0.828826
  H     -3.081291    0.004356    0.865474
  C     -2.787813   -1.251303   -0.857186
  C      2.766883    1.290789   -0.828934
  C      2.787104   -1.253243   -0.856748
  H      3.081194    0.002606    0.865652
  H      1.397017   -0.090141    2.546010
  H     -1.397272   -0.089118    2.545934
  H     -2.527840    2.177809   -0.221098
  H     -3.831700    1.330071   -1.096986
  H     -2.179611    1.331891   -1.760343
  H     -2.197336   -1.281416   -1.786601
  H     -3.852804   -1.263363   -1.130089
  H     -2.568420   -2.153246   -0.267290
  H      3.832479    1.327462   -1.097069
  H      2.529094    2.176157   -0.221396
  H      2.180426    1.330129   -1.760485
  H      2.567224   -2.154927   -0.266637
  H      3.852094   -1.265932   -1.129625
  H      2.196617   -1.283271   -1.786160

 Multiplicity           Mult            ....    1
 Number of Electrons    NEL             ....   84
 Basis Dimension        Dim             ....  239

ORBITAL ENERGIES
----------------

  NO   OCC          E(Eh)            E(eV)
   0   2.0000     -14.510038      -394.8382
   1   2.0000     -14.510023      -394.8378
   2   2.0000     -10.382827      -282.5311
   3   2.0000     -10.337269      -281.2914
   4   2.0000     -10.337246      -281.2908
   5   2.0000     -10.334490      -281.2158
   6   2.0000     -10.333925      -281.2004
   7   2.0000     -10.274880      -279.5937
   8   2.0000     -10.274875      -279.5936
   9   2.0000     -10.274748      -279.5901
  10   2.0000     -10.274742      -279.5900
  11   2.0000      -1.215838       -33.0846
  12   2.0000      -1.095459       -29.8089
  13   2.0000      -0.966530       -26.3006
  14   2.0000      -0.915577       -24.9141
  15   2.0000      -0.914836       -24.8940
  16   2.0000      -0.822415       -22.3791
  17   2.0000      -0.821521       -22.3547
  18   2.0000      -0.807355       -21.9693
  19   2.0000      -0.777197       -21.1486
  20   2.0000      -0.731226       -19.8977
  21   2.0000      -0.725278       -19.7358
  22   2.0000      -0.648809       -17.6550
  23   2.0000      -0.627438       -17.0735
  24   2.0000      -0.603810       -16.4305
  25   2.0000      -0.601941       -16.3796
  26   2.0000      -0.587141       -15.9769
  27   2.0000      -0.579286       -15.7632
  28   2.0000      -0.560194       -15.2437
  29   2.0000      -0.558397       -15.1948
  30   2.0000      -0.557136       -15.1604
  31   2.0000      -0.519143       -14.1266
  32   2.0000      -0.502469       -13.6729
  33   2.0000      -0.497743       -13.5443
  34   2.0000      -0.496385       -13.5073
  35   2.0000      -0.492224       -13.3941
  36   2.0000      -0.472538       -12.8584
  37   2.0000      -0.463606       -12.6154
  38   2.0000      -0.457651       -12.4533
  39   2.0000      -0.455896       -12.4056
  40   2.0000      -0.416233       -11.3263
  41   2.0000      -0.373695       -10.1688
  42   0.0000       0.058040         1.5793
  43   0.0000       0.097824         2.6619
  44   0.0000       0.135832         3.6962
  45   0.0000       0.149076         4.0566
  46   0.0000       0.152930         4.1614

MULLIKEN ATOMIC CHARGES
-----------------------
   0 N :   -0.192706
   1 C :    0.205775
   2 N :   -0.192706
   3 H :    0.146822
   4 C :    0.061590
   5 C :    0.061591
   6 C :   -0.045734
   7 C :   -0.045738
   8 C :   -0.015573
   9 H :    0.075800
  10 C :   -0.012328
  11 C :   -0.015579
  12 C :   -0.012319
  13 H :    0.075799
  14 H :    0.106687
  15 H :    0.106687
  16 H :    0.058669
  17 H :    0.063827
  18 H :    0.051282
  19 H :    0.050770
  20 H :    0.063538
  21 H :    0.057879
  22 H :    0.063827
  23 H :    0.058672
  24 H :    0.051283
  25 H :    0.057876
  26 H :    0.063536
  27 H :    0.050771
Sum of atomic charges:    1.0000000

LOEWDIN ATOMIC CHARGES
----------------------
   0 N :    0.101437
   1 C :    0.121895
   2 N :    0.101437
   3 H :    0.068010
   4 C :    0.017752
   5 C :    0.017752
   6 C :    0.043531
   7 C :    0.043530
   8 C :   -0.054788
   9 H :    0.049003
  10 C :   -0.054611
  11 C :   -0.054787
  12 C :   -0.054611
  13 H :    0.049003
  14 H :    0.062431
  15 H :    0.062431
  16 H :    0.038694
  17 H :    0.045743
  18 H :    0.035985
  19 H :    0.035881
  20 H :    0.045503
  21 H :    0.038487
  22 H :    0.045744
  23 H :    0.038695
  24 H :    0.035986
  25 H :    0.038486
  26 H :    0.045501
  27 H :    0.035880

  Mayer bond orders larger than 0.100000
B(  0-N ,  1-C ) :   1.3501 B(  0-N ,  5-C ) :   1.1821 B(  0-N ,  6-C ) :   0.8397
B(  1-C ,  2-N ) :   1.3501 B(  1-C ,  3-H ) :   0.9647 B(  2-N ,  4-C ) :   1.1821
B(  2-N ,  7-C ) :   0.8397 B(  4-C ,  5-C ) :   1.5867 B(  4-C , 14-H ) :   0.9847
B(  5-C , 15-H ) :   0.9847 B(  6-C ,  8-C ) :   1.0712 B(  6-C ,  9-H ) :   0.9402
B(  6-C , 10-C ) :   1.0712 B(  7-C , 11-C ) :   1.0712 B(  7-C , 12-C ) :   1.0712
B(  7-C , 13-H ) :   0.9402 B(  8-C , 16-H ) :   0.9676 B(  8-C , 17-H ) :   0.9695
B(  8-C , 18-H ) :   0.9625 B( 10-C , 19-H ) :   0.9625 B( 10-C , 20-H ) :   0.9699
B( 10-C , 21-H ) :   0.9674 B( 11-C , 22-H ) :   0.9695 B( 11-C , 23-H ) :   0.9676
B( 11-C , 24-H ) :   0.9625 B( 12-C , 25-H ) :   0.9674 B( 12-C , 26-H ) :   0.9699
B( 12-C , 27-H ) :   0.9625

Dispersion correction           -0.004056408
FINAL SINGLE POINT ENERGY      -462.135551317546

DIPOLE MOMENT
-------------
                                X             Y             Z
Electronic contribution:     -0.00031      -0.15835       6.93419
Nuclear contribution   :      0.00029       0.15813      -6.66039
                        -----------------------------------------
Total Dipole Moment    :     -0.00001      -0.00023       0.27380
                        -----------------------------------------
Magnitude (a.u.)       :      0.27380
Magnitude (Debye)      :      0.69593

Dispersion correction in the Hessian             ... Starting D4

VIBRATIONAL FREQUENCIES
-----------------------

Scaling factor for frequencies =  1.000000000  (already applied!)

   0:         0.00 cm**-1
   1:         0.00 cm**-1
   2:         0.00 cm**-1
   3:         0.00 cm**-1
   4:         0.00 cm**-1
   5:         0.00 cm**-1
   6:        45.28 cm**-1
   7:        55.82 cm**-1
   8:        92.52 cm**-1
   9:       136.97 cm**-1
  10:       166.11 cm**-1
  11:       264.16 cm**-1
  12:       264.90 cm**-1
  13:       276.52 cm**-1
  14:       293.14 cm**-1
  15:       315.75 cm**-1
  16:       316.29 cm**-1
  17:       344.70 cm**-1
  18:       393.62 cm**-1
  19:       452.89 cm**-1
  20:       481.22 cm**-1
  21:       521.15 cm**-1
  22:       610.62 cm**-1
  23:       678.46 cm**-1
  24:       683.95 cm**-1
  25:       701.43 cm**-1
  26:       760.49 cm**-1
  27:       897.18 cm**-1
  28:       907.19 cm**-1
  29:       913.64 cm**-1
  30:       921.12 cm**-1
  31:       947.26 cm**-1
  32:       947.44 cm**-1
  33:       967.63 cm**-1
  34:       968.62 cm**-1
  35:      1027.48 cm**-1
  36:      1036.52 cm**-1
  37:      1100.59 cm**-1
  38:      1124.45 cm**-1
  39:      1138.05 cm**-1
  40:      1170.84 cm**-1
  41:      1177.85 cm**-1
  42:      1179.03 cm**-1
  43:      1195.18 cm**-1
  44:      1216.57 cm**-1
  45:      1266.84 cm**-1
  46:      1342.76 cm**-1
  47:      1352.99 cm**-1
  48:      1353.20 cm**-1
  49:      1372.66 cm**-1
  50:      1401.58 cm**-1
  51:      1405.82 cm**-1
  52:      1406.03 cm**-1
  53:      1410.25 cm**-1
  54:      1410.63 cm**-1
  55:      1449.59 cm**-1
  56:      1449.59 cm**-1
  57:      1457.32 cm**-1
  58:      1458.39 cm**-1
  59:      1460.18 cm**-1
  60:      1461.99 cm**-1
  61:      1465.76 cm**-1
  62:      1476.56 cm**-1
  63:      1490.70 cm**-1
  64:      1514.61 cm**-1
  65:      1644.13 cm**-1
  66:      1645.23 cm**-1
  67:      3072.61 cm**-1
  68:      3072.61 cm**-1
  69:      3074.60 cm**-1
  70:      3074.64 cm**-1
  71:      3138.72 cm**-1
  72:      3138.72 cm**-1
  73:      3175.92 cm**-1
  74:      3175.95 cm**-1
  75:      3179.38 cm**-1
  76:      3179.39 cm**-1
  77:      3189.40 cm**-1
  78:      3189.40 cm**-1
  79:      3191.31 cm**-1
  80:      3191.34 cm**-1
  81:      3294.70 cm**-1
  82:      3301.10 cm**-1
  83:      3318.88 cm**-1

IR SPECTRUM
-----------

 Mode   freq       eps      Int      T**2         TX        TY        TZ
       cm**-1   L/(mol*cm) km/mol    a.u.
----------------------------------------------------------------------------
  6:     45.28   0.000036    0.18  0.000245  ( 0.000004  0.015596  0.001234)
  7:     55.82   0.000000    0.00  0.000000  (-0.000272  0.000041  0.000003)
  8:     92.52   0.000047    0.24  0.000159  (-0.000001 -0.012590 -0.000407)
  9:    136.97   0.000006    0.03  0.000014  ( 0.000003  0.000225  0.003686)
 10:    166.11   0.000000    0.00  0.000000  (-0.000263  0.000004  0.000006)
 11:    264.16   0.000005    0.02  0.000006  ( 0.002385 -0.000093  0.000049)
 12:    264.90   0.000004    0.02  0.000005  ( 0.000099  0.002181 -0.000725)
 13:    276.52   0.000024    0.12  0.000027  (-0.005199 -0.000006  0.000005)
 14:    293.14   0.000070    0.35  0.000074  (-0.000007  0.000134  0.008614)
 15:    315.75   0.000007    0.03  0.000007  ( 0.000217  0.000115 -0.002601)
 16:    316.29   0.000153    0.77  0.000151  ( 0.012296 -0.000012  0.000050)
 17:    344.70   0.000006    0.03  0.000005  ( 0.002330 -0.000003  0.000002)
 18:    393.62   0.000106    0.54  0.000084  ( 0.000004  0.009173 -0.000025)
 19:    452.89   0.000000    0.00  0.000000  (-0.000540 -0.000004  0.000002)
 20:    481.22   0.000008    0.04  0.000005  ( 0.000000  0.000911  0.002134)
 21:    521.15   0.000230    1.16  0.000137  (-0.011723 -0.000008 -0.000002)
 22:    610.62   0.000527    2.67  0.000270  ( 0.000002 -0.000234 -0.016416)
 23:    678.46   0.000001    0.00  0.000000  ( 0.000657  0.000082  0.000003)
 24:    683.95   0.016190   81.82  0.007387  (-0.000025 -0.085893 -0.003082)
 25:    701.43   0.000355    1.79  0.000158  ( 0.012559 -0.000009 -0.000000)
 26:    760.49   0.009092   45.95  0.003731  (-0.000015 -0.061022 -0.002648)
 27:    897.18   0.004913   24.83  0.001709  ( 0.000010  0.041268  0.002388)
 28:    907.19   0.000001    0.01  0.000000  (-0.000588  0.000027  0.000011)
 29:    913.64   0.000258    1.30  0.000088  ( 0.000006  0.000734 -0.009350)
 30:    921.12   0.000634    3.21  0.000215  (-0.014659  0.000002 -0.000005)
 31:    947.26   0.000002    0.01  0.000001  (-0.000725  0.000182  0.000008)
 32:    947.44   0.001059    5.35  0.000349  (-0.000005 -0.018669 -0.000394)
 33:    967.63   0.000000    0.00  0.000000  (-0.000086  0.000095  0.000007)
 34:    968.62   0.000467    2.36  0.000151  (-0.000004 -0.012268 -0.000086)
 35:   1027.48   0.003411   17.24  0.001036  ( 0.032184 -0.000006  0.000003)
 36:   1036.52   0.000118    0.60  0.000036  ( 0.000002 -0.000746  0.005925)
 37:   1100.59   0.003914   19.78  0.001110  ( 0.000004 -0.002747  0.033200)
 38:   1124.45   0.000068    0.34  0.000019  ( 0.004344  0.000005 -0.000005)
 39:   1138.05   0.000503    2.54  0.000138  ( 0.000002 -0.000487  0.011735)
 40:   1170.84   0.020815  105.19  0.005548  ( 0.074483  0.000000  0.000000)
 41:   1177.85   0.000114    0.58  0.000030  (-0.005504 -0.000053  0.000001)
 42:   1179.03   0.004423   22.35  0.001171  (-0.000045  0.034180  0.001539)
 43:   1195.18   0.001557    7.87  0.000407  (-0.000008  0.000686 -0.020154)
 44:   1216.57   0.031083  157.08  0.007973  ( 0.089292 -0.000024  0.000003)
 45:   1266.84   0.006739   34.06  0.001660  ( 0.040745 -0.000016  0.000003)
 46:   1342.76   0.000003    0.01  0.000001  ( 0.000003 -0.000452  0.000673)
 47:   1352.99   0.000001    0.01  0.000000  (-0.000558 -0.000024  0.000003)
 48:   1353.20   0.000051    0.26  0.000012  (-0.000007 -0.003417 -0.000063)
 49:   1372.66   0.006998   35.37  0.001591  (-0.039888  0.000013  0.000002)
 50:   1401.58   0.004026   20.35  0.000896  (-0.000008 -0.000276  0.029940)
 51:   1405.82   0.000027    0.13  0.000006  (-0.002277 -0.000835 -0.000120)
 52:   1406.03   0.008134   41.11  0.001805  (-0.000037  0.042044  0.006139)
 53:   1410.25   0.007030   35.53  0.001556  (-0.000244  0.007665 -0.038688)
 54:   1410.63   0.001289    6.52  0.000285  ( 0.016880  0.000104 -0.000555)
 55:   1449.59   0.000012    0.06  0.000003  ( 0.000053  0.001593  0.000027)
 56:   1449.59   0.000002    0.01  0.000000  (-0.000171  0.000643 -0.000014)
 57:   1457.32   0.000001    0.01  0.000000  (-0.000555  0.000043 -0.000050)
 58:   1458.39   0.001430    7.23  0.000306  (-0.000001 -0.013410  0.011236)
 59:   1460.18   0.000024    0.12  0.000005  (-0.002253 -0.000001 -0.000078)
 60:   1461.99   0.007146   36.12  0.001525  (-0.000040  0.004028  0.038848)
 61:   1465.76   0.005575   28.17  0.001187  ( 0.034453 -0.000002  0.000037)
 62:   1476.56   0.000721    3.65  0.000152  ( 0.000002 -0.000241  0.012345)
 63:   1490.70   0.000405    2.05  0.000085  ( 0.009209 -0.000005 -0.000001)
 64:   1514.61   0.000807    4.08  0.000166  ( 0.000002 -0.000269  0.012894)
 65:   1644.13   0.001458    7.37  0.000277  (-0.000007  0.001032 -0.016604)
 66:   1645.23   0.028418  143.61  0.005390  (-0.073418  0.000028  0.000000)
 67:   3072.61   0.005384   27.21  0.000547  (-0.000107  0.023100  0.003633)
 68:   3072.61   0.000110    0.56  0.000011  ( 0.000794  0.003214  0.000483)
 69:   3074.60   0.000065    0.33  0.000007  (-0.002395  0.000273 -0.000893)
 70:   3074.64   0.002626   13.27  0.000267  ( 0.000139  0.005322 -0.015433)
 71:   3138.72   0.000625    3.16  0.000062  (-0.006209 -0.000039 -0.004860)
 72:   3138.72   0.000728    3.68  0.000072  (-0.004022  0.000063  0.007500)
 73:   3175.92   0.001879    9.49  0.000185  (-0.000036 -0.013307  0.002742)
 74:   3175.95   0.000069    0.35  0.000007  (-0.002594  0.000255 -0.000077)
 75:   3179.38   0.006860   34.67  0.000673  (-0.003404  0.001256  0.025694)
 76:   3179.39   0.003986   20.14  0.000391  (-0.019250 -0.000230 -0.004537)
 77:   3189.40   0.000142    0.72  0.000014  (-0.002753  0.002518 -0.000120)
 78:   3189.40   0.002372   11.99  0.000232  ( 0.000474  0.015209 -0.000768)
 79:   3191.31   0.005227   26.41  0.000511  (-0.022603 -0.000059 -0.000452)
 80:   3191.34   0.000841    4.25  0.000082  ( 0.001145 -0.001467 -0.008877)
 81:   3294.70   0.012190   61.60  0.001155  (-0.000002 -0.001291  0.033955)
 82:   3301.10   0.005193   26.25  0.000491  (-0.022157  0.000009 -0.000002)
 83:   3318.88   0.002973   15.03  0.000280  ( 0.000000  0.000717 -0.016706)

--------------------------
THERMOCHEMISTRY AT 298.15K
--------------------------

Temperature         ... 298.15 K
Pressure            ... 1.00 atm
Total Mass          ... 153.25 AMU

Throughout the following assumptions are being made:
  (1) The electronic state is orbitally nondegenerate
  (2) There are no thermally accessible electronically excited states
  (3) Hindered rotations indicated by low frequency modes are not
      treated as such but are treated as vibrations and this may
      cause some error
  (4) All equations used are the standard statistical mechanics
      equations for an ideal gas
  (5) All vibrations are strictly harmonic

freq.      45.28  E(vib)   ...       0.53
freq.      55.82  E(vib)   ...       0.52
freq.      92.52  E(vib)   ...       0.47
freq.     136.97  E(vib)   ...       0.42
freq.     166.11  E(vib)   ...       0.39
freq.     264.16  E(vib)   ...       0.29
freq.     264.90  E(vib)   ...       0.29
freq.     276.52  E(vib)   ...       0.28
freq.     293.14  E(vib)   ...       0.27
freq.     315.75  E(vib)   ...       0.25
freq.     316.29  E(vib)   ...       0.25
freq.     344.70  E(vib)   ...       0.23
freq.     393.62  E(vib)   ...       0.20
freq.     452.89  E(vib)   ...       0.16
freq.     481.22  E(vib)   ...       0.15
freq.     521.15  E(vib)   ...       0.13
freq.     610.62  E(vib)   ...       0.10
freq.     678.46  E(vib)   ...       0.08
freq.     683.95  E(vib)   ...       0.07
freq.     701.43  E(vib)   ...       0.07
freq.     760.49  E(vib)   ...       0.06
freq.     897.18  E(vib)   ...       0.03
freq.     907.19  E(vib)   ...       0.03
freq.     913.64  E(vib)   ...       0.03
freq.     921.12  E(vib)   ...       0.03
freq.     947.26  E(vib)   ...       0.03
freq.     947.44  E(vib)   ...       0.03
freq.     967.63  E(vib)   ...       0.03
freq.     968.62  E(vib)   ...       0.03
freq.    1027.48  E(vib)   ...       0.02
freq.    1036.52  E(vib)   ...       0.02
freq.    1100.59  E(vib)   ...       0.02
freq.    1124.45  E(vib)   ...       0.01
freq.    1138.05  E(vib)   ...       0.01
freq.    1170.84  E(vib)   ...       0.01
freq.    1177.85  E(vib)   ...       0.01
freq.    1179.03  E(vib)   ...       0.01
freq.    1195.18  E(vib)   ...       0.01
freq.    1216.57  E(vib)   ...       0.01
freq.    1266.84  E(vib)   ...       0.01
freq.    1342.76  E(vib)   ...       0.01
freq.    1352.99  E(vib)   ...       0.01
freq.    1353.20  E(vib)   ...       0.01
freq.    1372.66  E(vib)   ...       0.01
freq.    1401.58  E(vib)   ...       0.00
freq.    1405.82  E(vib)   ...       0.00
freq.    1406.03  E(vib)   ...       0.00
freq.    1410.25  E(vib)   ...       0.00
freq.    1410.63  E(vib)   ...       0.00
freq.    1449.59  E(vib)   ...       0.00
freq.    1449.59  E(vib)   ...       0.00
freq.    1457.32  E(vib)   ...       0.00
freq.    1458.39  E(vib)   ...       0.00
freq.    1460.18  E(vib)   ...       0.00
freq.    1461.99  E(vib)   ...       0.00
freq.    1465.76  E(vib)   ...       0.00
freq.    1476.56  E(vib)   ...       0.00
freq.    1490.70  E(vib)   ...       0.00
freq.    1514.61  E(vib)   ...       0.00
freq.    1644.13  E(vib)   ...       0.00
freq.    1645.23  E(vib)   ...       0.00
freq.    3072.61  E(vib)   ...       0.00
freq.    3072.61  E(vib)   ...       0.00
freq.    3074.60  E(vib)   ...       0.00
freq.    3074.64  E(vib)   ...       0.00
freq.    3138.72  E(vib)   ...       0.00
freq.    3138.72  E(vib)   ...       0.00
freq.    3175.92  E(vib)   ...       0.00
freq.    3175.95  E(vib)   ...       0.00
freq.    3179.38  E(vib)   ...       0.00
freq.    3179.39  E(vib)   ...       0.00
freq.    3189.40  E(vib)   ...       0.00
freq.    3189.40  E(vib)   ...       0.00
freq.    3191.31  E(vib)   ...       0.00
freq.    3191.34  E(vib)   ...       0.00
freq.    3294.70  E(vib)   ...       0.00
freq.    3301.10  E(vib)   ...       0.00
freq.    3318.88  E(vib)   ...       0.00

------------
INNER ENERGY
------------

The inner energy is: U= E(el) + E(ZPE) + E(vib) + E(rot) + E(trans)
    E(el)   - is the total energy from the electronic structure calculation
              = E(kin-el) + E(nuc-el) + E(el-el) + E(nuc-nuc)
    E(ZPE)  - the the zero temperature vibrational energy from the frequency calculation
    E(vib)  - the the finite temperature correction to E(ZPE) due to population
              of excited vibrational states
    E(rot)  - is the rotational thermal energy
    E(trans)- is the translational thermal energy

Summary of contributions to the inner energy U:
Electronic energy                ...   -462.13555132 Eh
Zero point energy                ...      0.25594777 Eh     160.61 kcal/mol
Thermal vibrational correction   ...      0.00905153 Eh       5.68 kcal/mol
Thermal rotational correction    ...      0.00141627 Eh       0.89 kcal/mol
Thermal translational correction ...      0.00141627 Eh       0.89 kcal/mol
-----------------------------------------------------------------------
Total thermal energy                   -461.86771948 Eh

Summary of corrections to the electronic energy:
(perhaps to be used in another calculation)
Total thermal correction                  0.01188407 Eh       7.46 kcal/mol
Non-thermal (ZPE) correction              0.25594777 Eh     160.61 kcal/mol
-----------------------------------------------------------------------
Total correction                          0.26783184 Eh     168.07 kcal/mol

--------
ENTHALPY
--------

The enthalpy is H = U + kB*T
                kB is Boltzmann's constant
Total free energy                 ...   -461.86771948 Eh
Thermal Enthalpy correction       ...      0.00094421 Eh       0.59 kcal/mol
-----------------------------------------------------------------------
Total Enthalpy                    ...   -461.86677527 Eh

Note: Only C1 symmetry has been detected, increase convergence thresholds
      if your molecule has a higher symmetry. Symmetry factor of 1.0 is
      used for the rotational entropy correction.

Note: Rotational entropy computed according to Herzberg
Infrared and Raman Spectra, Chapter V,1, Van Nostrand Reinhold, 1945
Point Group:  C1, Symmetry Number:   1
Rotational constants in cm-1:     0.065515     0.021037     0.020111

Vibrational entropy computed according to the QRRHO of S. Grimme
Chem.Eur.J. 2012 18 9955

-------
ENTROPY
-------

The entropy contributions are T*S = T*(S(el)+S(vib)+S(rot)+S(trans))
     S(el)   - electronic entropy
     S(vib)  - vibrational entropy
     S(rot)  - rotational entropy

                             ****ORCA TERMINATED NORMALLY****
TOTAL RUN TIME: 0 days 1 hours 7 minutes 49 seconds 469 msec
