                         Program Version 5.0.4 -  RELEASE  -
|  1> # ORCA 5.0.4 - /users/bwb16179/postgrad/2024_03/DFT_Crest_Conformers/Opt/prot/4_prot_aq_5.inp # write input file
|  2> # Basic Mode
|  3> #
|  4> ! Opt Freq wB97X Def2-SVP D4 SlowConv TightSCF Defgrid2 Def2/J RIJCOSX CPCM(Water)
|  5>
|  6>
|  7>
|  8> %maxcore 4500
|  9>
| 10> %geom
| 11> Maxiter 150
| 12> END
| 13>
| 14> * xyzfile 1 1 4_prot_aq_5.xyz
| 15>
| 16>                          ****END OF INPUT****
 Total Charge           Charge          ....    1
 Multiplicity           Mult            ....    1
 Number of Electrons    NEL             ....   84
Dispersion correction           -0.004074567
FINAL SINGLE POINT ENERGY      -462.131625309931
Dispersion correction            ... Starting D4
Dispersion correction           -0.004054559
FINAL SINGLE POINT ENERGY      -462.135119391771
Dispersion correction            ... Starting D4
Dispersion correction           -0.004051086
FINAL SINGLE POINT ENERGY      -462.135327214920
Dispersion correction            ... Starting D4
FINAL SINGLE POINT ENERGY      -462.135410251260
FINAL SINGLE POINT ENERGY      -462.135423092228
FINAL SINGLE POINT ENERGY      -462.135429157525
FINAL SINGLE POINT ENERGY      -462.135433256418
FINAL SINGLE POINT ENERGY      -462.135440349970
FINAL SINGLE POINT ENERGY      -462.135447510963
Dispersion correction           -0.004049699
FINAL SINGLE POINT ENERGY      -462.135452442078
Dispersion correction            ... Starting D4
Dispersion correction           -0.004049689
FINAL SINGLE POINT ENERGY      -462.135454216554
Dispersion correction            ... Starting D4
                    ***********************HURRAY********************

CARTESIAN COORDINATES (ANGSTROEM)
---------------------------------
  N     -1.075822    0.102235    0.383354
  C      0.010601   -0.235498   -0.308617
  N      1.088338    0.206204    0.337655
  H      0.019059   -0.783309   -1.250793
  C      0.678825    0.850846    1.482593
  C     -0.681020    0.789031    1.509546
  C     -2.483215   -0.134214   -0.012193
  C      2.494034    0.006229   -0.081782
  C     -2.966258    1.001840   -0.904201
  H     -3.037919   -0.113537    0.937843
  C     -2.644657   -1.505427   -0.649794
  C      2.709311    0.553597   -1.485201
  C      2.881068   -1.459231    0.061580
  H      3.075832    0.607227    0.632378
  H      1.389801    1.291110    2.178990
  H     -1.401391    1.168173    2.231948
  H     -2.407613    1.013670   -1.853563
  H     -2.843064    1.975960   -0.408037
  H     -4.033022    0.860259   -1.129954
  H     -2.262601   -2.299474    0.008341
  H     -2.130380   -1.564111   -1.621939
  H     -3.713494   -1.688833   -0.828692
  H      2.145774   -0.028965   -2.231016
  H      3.776721    0.485011   -1.739519
  H      2.402344    1.607756   -1.549602
  H      3.949609   -1.578891   -0.168432
  H      2.306617   -2.088308   -0.637221
  H      2.704152   -1.814643    1.087335

 Multiplicity           Mult            ....    1
 Number of Electrons    NEL             ....   84
 Basis Dimension        Dim             ....  239

ORBITAL ENERGIES
----------------

  NO   OCC          E(Eh)            E(eV)
   0   2.0000     -14.510393      -394.8479
   1   2.0000     -14.509647      -394.8276
   2   2.0000     -10.383349      -282.5453
   3   2.0000     -10.337618      -281.3009
   4   2.0000     -10.337357      -281.2938
   5   2.0000     -10.334643      -281.2199
   6   2.0000     -10.333720      -281.1948
   7   2.0000     -10.276316      -279.6328
   8   2.0000     -10.275264      -279.6042
   9   2.0000     -10.274692      -279.5886
  10   2.0000     -10.274284      -279.5775
  11   2.0000      -1.215794       -33.0834
  12   2.0000      -1.095393       -29.8071
  13   2.0000      -0.966393       -26.2969
  14   2.0000      -0.916414       -24.9369
  15   2.0000      -0.914866       -24.8948
  16   2.0000      -0.823568       -22.4104
  17   2.0000      -0.821949       -22.3664
  18   2.0000      -0.806929       -21.9577
  19   2.0000      -0.775749       -21.1092
  20   2.0000      -0.731431       -19.9033
  21   2.0000      -0.725188       -19.7334
  22   2.0000      -0.650443       -17.6995
  23   2.0000      -0.629713       -17.1354
  24   2.0000      -0.604240       -16.4422
  25   2.0000      -0.600631       -16.3440
  26   2.0000      -0.586648       -15.9635
  27   2.0000      -0.580103       -15.7854
  28   2.0000      -0.564718       -15.3668
  29   2.0000      -0.559337       -15.2203
  30   2.0000      -0.550310       -14.9747
  31   2.0000      -0.518995       -14.1226
  32   2.0000      -0.502246       -13.6668
  33   2.0000      -0.497726       -13.5438
  34   2.0000      -0.496670       -13.5151
  35   2.0000      -0.492349       -13.3975
  36   2.0000      -0.473411       -12.8822
  37   2.0000      -0.463884       -12.6229
  38   2.0000      -0.458394       -12.4735
  39   2.0000      -0.457014       -12.4360
  40   2.0000      -0.415048       -11.2940
  41   2.0000      -0.374420       -10.1885
  42   0.0000       0.058729         1.5981
  43   0.0000       0.095912         2.6099
  44   0.0000       0.136231         3.7070
  45   0.0000       0.148999         4.0545
  46   0.0000       0.154450         4.2028

MULLIKEN ATOMIC CHARGES
-----------------------
   0 N :   -0.196144
   1 C :    0.212355
   2 N :   -0.194137
   3 H :    0.138768
   4 C :    0.065720
   5 C :    0.061910
   6 C :   -0.041101
   7 C :   -0.045654
   8 C :    0.001872
   9 H :    0.076921
  10 C :   -0.038910
  11 C :   -0.022763
  12 C :   -0.007017
  13 H :    0.075963
  14 H :    0.106313
  15 H :    0.105373
  16 H :    0.048914
  17 H :    0.054041
  18 H :    0.062593
  19 H :    0.063235
  20 H :    0.057009
  21 H :    0.066943
  22 H :    0.052749
  23 H :    0.064665
  24 H :    0.060144
  25 H :    0.063453
  26 H :    0.050100
  27 H :    0.056687
Sum of atomic charges:    1.0000000

LOEWDIN ATOMIC CHARGES
----------------------
   0 N :    0.100255
   1 C :    0.122057
   2 N :    0.099658
   3 H :    0.066681
   4 C :    0.019667
   5 C :    0.017412
   6 C :    0.043799
   7 C :    0.043464
   8 C :   -0.053295
   9 H :    0.049020
  10 C :   -0.056245
  11 C :   -0.055346
  12 C :   -0.054425
  13 H :    0.048994
  14 H :    0.062547
  15 H :    0.062412
  16 H :    0.035824
  17 H :    0.037014
  18 H :    0.044729
  19 H :    0.039749
  20 H :    0.036924
  21 H :    0.048407
  22 H :    0.036141
  23 H :    0.046307
  24 H :    0.039013
  25 H :    0.045305
  26 H :    0.035759
  27 H :    0.038173

  Mayer bond orders larger than 0.100000
B(  0-N ,  1-C ) :   1.3542 B(  0-N ,  5-C ) :   1.1778 B(  0-N ,  6-C ) :   0.8433
B(  1-C ,  2-N ) :   1.3473 B(  1-C ,  3-H ) :   0.9667 B(  2-N ,  4-C ) :   1.1799
B(  2-N ,  7-C ) :   0.8404 B(  4-C ,  5-C ) :   1.5883 B(  4-C , 14-H ) :   0.9851
B(  5-C , 15-H ) :   0.9858 B(  6-C ,  8-C ) :   1.0688 B(  6-C ,  9-H ) :   0.9406
B(  6-C , 10-C ) :   1.0740 B(  7-C , 11-C ) :   1.0710 B(  7-C , 12-C ) :   1.0712
B(  7-C , 13-H ) :   0.9402 B(  8-C , 16-H ) :   0.9627 B(  8-C , 17-H ) :   0.9659
B(  8-C , 18-H ) :   0.9713 B( 10-C , 19-H ) :   0.9684 B( 10-C , 20-H ) :   0.9614
B( 10-C , 21-H ) :   0.9656 B( 11-C , 22-H ) :   0.9626 B( 11-C , 23-H ) :   0.9687
B( 11-C , 24-H ) :   0.9680 B( 12-C , 25-H ) :   0.9704 B( 12-C , 26-H ) :   0.9623
B( 12-C , 27-H ) :   0.9669

Dispersion correction           -0.004049819
FINAL SINGLE POINT ENERGY      -462.135453672433

DIPOLE MOMENT
-------------
                                X             Y             Z
Electronic contribution:      0.06232       2.81713       6.09175
Nuclear contribution   :     -0.06619      -2.74078      -5.84647
                        -----------------------------------------
Total Dipole Moment    :     -0.00386       0.07636       0.24529
                        -----------------------------------------
Magnitude (a.u.)       :      0.25693
Magnitude (Debye)      :      0.65305

Dispersion correction in the Hessian             ... Starting D4

VIBRATIONAL FREQUENCIES
-----------------------

Scaling factor for frequencies =  1.000000000  (already applied!)

   0:         0.00 cm**-1
   1:         0.00 cm**-1
   2:         0.00 cm**-1
   3:         0.00 cm**-1
   4:         0.00 cm**-1
   5:         0.00 cm**-1
   6:        -9.25 cm**-1 ***imaginary mode***
   7:        39.05 cm**-1
   8:        91.36 cm**-1
   9:       132.16 cm**-1
  10:       163.10 cm**-1
  11:       236.27 cm**-1
  12:       246.03 cm**-1
  13:       273.93 cm**-1
  14:       282.76 cm**-1
  15:       305.38 cm**-1
  16:       315.95 cm**-1
  17:       339.66 cm**-1
  18:       398.44 cm**-1
  19:       451.32 cm**-1
  20:       475.35 cm**-1
  21:       515.76 cm**-1
  22:       605.63 cm**-1
  23:       679.01 cm**-1
  24:       682.55 cm**-1
  25:       697.18 cm**-1
  26:       775.97 cm**-1
  27:       893.45 cm**-1
  28:       911.38 cm**-1
  29:       918.15 cm**-1
  30:       920.19 cm**-1
  31:       939.41 cm**-1
  32:       941.81 cm**-1
  33:       962.65 cm**-1
  34:       964.65 cm**-1
  35:      1026.59 cm**-1
  36:      1036.43 cm**-1
  37:      1107.26 cm**-1
  38:      1123.78 cm**-1
  39:      1136.81 cm**-1
  40:      1169.34 cm**-1
  41:      1174.42 cm**-1
  42:      1176.42 cm**-1
  43:      1191.31 cm**-1
  44:      1214.60 cm**-1
  45:      1267.97 cm**-1
  46:      1338.65 cm**-1
  47:      1347.54 cm**-1
  48:      1352.38 cm**-1
  49:      1368.91 cm**-1
  50:      1395.52 cm**-1
  51:      1401.37 cm**-1
  52:      1404.46 cm**-1
  53:      1407.18 cm**-1
  54:      1408.60 cm**-1
  55:      1444.25 cm**-1
  56:      1446.73 cm**-1
  57:      1451.87 cm**-1
  58:      1455.68 cm**-1
  59:      1461.71 cm**-1
  60:      1462.42 cm**-1
  61:      1465.44 cm**-1
  62:      1474.25 cm**-1
  63:      1486.39 cm**-1
  64:      1512.17 cm**-1
  65:      1645.20 cm**-1
  66:      1648.10 cm**-1
  67:      3070.17 cm**-1
  68:      3070.42 cm**-1
  69:      3074.68 cm**-1
  70:      3074.89 cm**-1
  71:      3135.63 cm**-1
  72:      3139.82 cm**-1
  73:      3174.22 cm**-1
  74:      3175.07 cm**-1
  75:      3178.36 cm**-1
  76:      3179.72 cm**-1
  77:      3187.81 cm**-1
  78:      3188.62 cm**-1
  79:      3190.65 cm**-1
  80:      3190.88 cm**-1
  81:      3299.63 cm**-1
  82:      3303.43 cm**-1
  83:      3317.56 cm**-1

IR SPECTRUM
-----------

 Mode   freq       eps      Int      T**2         TX        TY        TZ
       cm**-1   L/(mol*cm) km/mol    a.u.
----------------------------------------------------------------------------
  7:     39.05   0.000060    0.30  0.000482  (-0.002673 -0.021488  0.003572)
  8:     91.36   0.000027    0.14  0.000092  (-0.004267  0.007089 -0.004824)
  9:    132.16   0.000005    0.03  0.000012  (-0.000421 -0.000920 -0.003275)
 10:    163.10   0.000000    0.00  0.000000  (-0.000085  0.000257 -0.000408)
 11:    236.27   0.000011    0.05  0.000014  ( 0.003392  0.001022 -0.001293)
 12:    246.03   0.000008    0.04  0.000011  ( 0.002138  0.000959  0.002297)
 13:    273.93   0.000015    0.07  0.000017  ( 0.000914  0.003357  0.002121)
 14:    282.76   0.000026    0.13  0.000029  ( 0.000719 -0.000028  0.005358)
 15:    305.38   0.000111    0.56  0.000113  (-0.010603  0.000577 -0.000808)
 16:    315.95   0.000027    0.13  0.000026  ( 0.002273 -0.001939 -0.004156)
 17:    339.66   0.000027    0.14  0.000025  ( 0.004191  0.002624 -0.000893)
 18:    398.44   0.000103    0.52  0.000081  (-0.002787 -0.007904  0.003241)
 19:    451.32   0.000031    0.16  0.000022  ( 0.002446  0.002052  0.003391)
 20:    475.35   0.000001    0.00  0.000001  ( 0.000380  0.000624 -0.000336)
 21:    515.76   0.000220    1.11  0.000133  ( 0.011096  0.003060 -0.000775)
 22:    605.63   0.000505    2.55  0.000260  (-0.000200 -0.004921 -0.015365)
 23:    679.01   0.013987   70.68  0.006428  (-0.002389 -0.070191  0.038674)
 24:    682.55   0.000023    0.12  0.000011  ( 0.001159  0.001008  0.002892)
 25:    697.18   0.000491    2.48  0.000220  (-0.012058  0.008078 -0.003047)
 26:    775.97   0.010320   52.15  0.004150  (-0.004559  0.055390 -0.032580)
 27:    893.45   0.005131   25.93  0.001792  (-0.004383  0.035954 -0.021915)
 28:    911.38   0.000225    1.14  0.000077  ( 0.001657  0.002031  0.008373)
 29:    918.15   0.000538    2.72  0.000183  ( 0.012669  0.004191 -0.002191)
 30:    920.19   0.000020    0.10  0.000007  ( 0.001750  0.001177  0.001543)
 31:    939.41   0.000550    2.78  0.000183  (-0.000769 -0.011204  0.007524)
 32:    941.81   0.000776    3.92  0.000257  ( 0.000936 -0.015797  0.002566)
 33:    962.65   0.000152    0.77  0.000049  (-0.000536 -0.004482  0.005381)
 34:    964.65   0.000253    1.28  0.000082  (-0.000351 -0.009016  0.000617)
 35:   1026.59   0.003485   17.61  0.001059  (-0.032519 -0.000786  0.001144)
 36:   1036.43   0.000053    0.27  0.000016  (-0.000867 -0.002383 -0.003091)
 37:   1107.26   0.003621   18.30  0.001020  ( 0.000916 -0.016813 -0.027145)
 38:   1123.78   0.000206    1.04  0.000057  ( 0.006765 -0.001697  0.002940)
 39:   1136.81   0.000611    3.09  0.000168  (-0.001661 -0.005790 -0.011471)
 40:   1169.34   0.018003   90.98  0.004804  (-0.069254 -0.001838  0.002211)
 41:   1174.42   0.001910    9.65  0.000508  (-0.019428 -0.011405  0.000227)
 42:   1176.42   0.003934   19.88  0.001044  ( 0.008723  0.027286 -0.014930)
 43:   1191.31   0.001288    6.51  0.000337  (-0.001817 -0.006085 -0.017238)
 44:   1214.60   0.032852  166.02  0.008440  ( 0.091864 -0.000986 -0.000710)
 45:   1267.97   0.006076   30.70  0.001495  (-0.038599  0.002205 -0.000775)
 46:   1338.65   0.000027    0.13  0.000006  (-0.000166  0.002480 -0.000050)
 47:   1347.54   0.000222    1.12  0.000051  ( 0.006674  0.001691 -0.002010)
 48:   1352.38   0.000144    0.73  0.000033  (-0.004912  0.000274  0.003002)
 49:   1368.91   0.008375   42.32  0.001909  ( 0.043480 -0.003163  0.002943)
 50:   1395.52   0.002718   13.73  0.000608  (-0.000922 -0.000924 -0.024617)
 51:   1401.37   0.003584   18.11  0.000798  ( 0.006206 -0.025215  0.011125)
 52:   1404.46   0.004478   22.63  0.000995  (-0.000436  0.031106 -0.005216)
 53:   1407.18   0.004219   21.32  0.000936  ( 0.016159  0.008227  0.024635)
 54:   1408.60   0.006084   30.75  0.001348  ( 0.010997 -0.017907 -0.030104)
 55:   1444.25   0.000019    0.09  0.000004  ( 0.000731 -0.000105  0.001861)
 56:   1446.73   0.000068    0.34  0.000015  (-0.000210  0.001492  0.003524)
 57:   1451.87   0.000313    1.58  0.000067  ( 0.003037  0.006890 -0.003269)
 58:   1455.68   0.002443   12.35  0.000524  (-0.001785 -0.008730 -0.021081)
 59:   1461.71   0.005281   26.69  0.001127  ( 0.025915  0.004658 -0.020838)
 60:   1462.42   0.005506   27.82  0.001175  ( 0.014991  0.018646  0.024544)
 61:   1465.44   0.001030    5.20  0.000219  ( 0.011157 -0.007555  0.006138)
 62:   1474.25   0.000326    1.65  0.000069  ( 0.004800 -0.001500 -0.006613)
 63:   1486.39   0.000566    2.86  0.000119  (-0.010804  0.001422 -0.000324)
 64:   1512.17   0.000479    2.42  0.000099  ( 0.000433 -0.004540 -0.008831)
 65:   1645.20   0.016538   83.57  0.003137  ( 0.054992  0.005556  0.009050)
 66:   1648.10   0.013894   70.22  0.002631  (-0.049527  0.007805  0.010818)
 67:   3070.17   0.002521   12.74  0.000256  ( 0.002389 -0.015354  0.003852)
 68:   3070.42   0.002195   11.09  0.000223  ( 0.003800 -0.012521  0.007204)
 69:   3074.68   0.001741    8.80  0.000177  ( 0.000882  0.002255 -0.013069)
 70:   3074.89   0.001733    8.76  0.000176  (-0.000609  0.010058  0.008622)
 71:   3135.63   0.000757    3.83  0.000075  ( 0.005444  0.000695 -0.006725)
 72:   3139.82   0.000729    3.69  0.000072  ( 0.005268  0.004597  0.004858)
 73:   3174.22   0.001623    8.20  0.000160  ( 0.006607 -0.002116  0.010554)
 74:   3175.07   0.001148    5.80  0.000113  (-0.003370  0.009210  0.004083)
 75:   3178.36   0.004835   24.43  0.000475  (-0.010906 -0.000522  0.018855)
 76:   3179.72   0.004708   23.79  0.000462  (-0.012390 -0.013529 -0.011204)
 77:   3187.81   0.001925    9.73  0.000188  ( 0.009486  0.009924  0.000067)
 78:   3188.62   0.001531    7.74  0.000150  (-0.005939 -0.007055  0.008049)
 79:   3190.65   0.003054   15.43  0.000299  ( 0.015911 -0.006139 -0.002804)
 80:   3190.88   0.002100   10.61  0.000205  ( 0.013059 -0.002438  0.005379)
 81:   3299.63   0.005565   28.12  0.000526  ( 0.022913  0.000594 -0.000955)
 82:   3303.43   0.012411   62.72  0.001172  (-0.000534 -0.017287 -0.029551)
 83:   3317.56   0.002579   13.03  0.000243  (-0.000051 -0.007608 -0.013590)

--------------------------
THERMOCHEMISTRY AT 298.15K
--------------------------

Temperature         ... 298.15 K
Pressure            ... 1.00 atm
Total Mass          ... 153.25 AMU

Throughout the following assumptions are being made:
  (1) The electronic state is orbitally nondegenerate
  (2) There are no thermally accessible electronically excited states
  (3) Hindered rotations indicated by low frequency modes are not
      treated as such but are treated as vibrations and this may
      cause some error
  (4) All equations used are the standard statistical mechanics
      equations for an ideal gas
  (5) All vibrations are strictly harmonic

freq.      39.05  E(vib)   ...       0.54
freq.      91.36  E(vib)   ...       0.47
freq.     132.16  E(vib)   ...       0.42
freq.     163.10  E(vib)   ...       0.39
freq.     236.27  E(vib)   ...       0.32
freq.     246.03  E(vib)   ...       0.31
freq.     273.93  E(vib)   ...       0.28
freq.     282.76  E(vib)   ...       0.28
freq.     305.38  E(vib)   ...       0.26
freq.     315.95  E(vib)   ...       0.25
freq.     339.66  E(vib)   ...       0.23
freq.     398.44  E(vib)   ...       0.20
freq.     451.32  E(vib)   ...       0.16
freq.     475.35  E(vib)   ...       0.15
freq.     515.76  E(vib)   ...       0.13
freq.     605.63  E(vib)   ...       0.10
freq.     679.01  E(vib)   ...       0.08
freq.     682.55  E(vib)   ...       0.08
freq.     697.18  E(vib)   ...       0.07
freq.     775.97  E(vib)   ...       0.05
freq.     893.45  E(vib)   ...       0.03
freq.     911.38  E(vib)   ...       0.03
freq.     918.15  E(vib)   ...       0.03
freq.     920.19  E(vib)   ...       0.03
freq.     939.41  E(vib)   ...       0.03
freq.     941.81  E(vib)   ...       0.03
freq.     962.65  E(vib)   ...       0.03
freq.     964.65  E(vib)   ...       0.03
freq.    1026.59  E(vib)   ...       0.02
freq.    1036.43  E(vib)   ...       0.02
freq.    1107.26  E(vib)   ...       0.02
freq.    1123.78  E(vib)   ...       0.01
freq.    1136.81  E(vib)   ...       0.01
freq.    1169.34  E(vib)   ...       0.01
freq.    1174.42  E(vib)   ...       0.01
freq.    1176.42  E(vib)   ...       0.01
freq.    1191.31  E(vib)   ...       0.01
freq.    1214.60  E(vib)   ...       0.01
freq.    1267.97  E(vib)   ...       0.01
freq.    1338.65  E(vib)   ...       0.01
freq.    1347.54  E(vib)   ...       0.01
freq.    1352.38  E(vib)   ...       0.01
freq.    1368.91  E(vib)   ...       0.01
freq.    1395.52  E(vib)   ...       0.00
freq.    1401.37  E(vib)   ...       0.00
freq.    1404.46  E(vib)   ...       0.00
freq.    1407.18  E(vib)   ...       0.00
freq.    1408.60  E(vib)   ...       0.00
freq.    1444.25  E(vib)   ...       0.00
freq.    1446.73  E(vib)   ...       0.00
freq.    1451.87  E(vib)   ...       0.00
freq.    1455.68  E(vib)   ...       0.00
freq.    1461.71  E(vib)   ...       0.00
freq.    1462.42  E(vib)   ...       0.00
freq.    1465.44  E(vib)   ...       0.00
freq.    1474.25  E(vib)   ...       0.00
freq.    1486.39  E(vib)   ...       0.00
freq.    1512.17  E(vib)   ...       0.00
freq.    1645.20  E(vib)   ...       0.00
freq.    1648.10  E(vib)   ...       0.00
freq.    3070.17  E(vib)   ...       0.00
freq.    3070.42  E(vib)   ...       0.00
freq.    3074.68  E(vib)   ...       0.00
freq.    3074.89  E(vib)   ...       0.00
freq.    3135.63  E(vib)   ...       0.00
freq.    3139.82  E(vib)   ...       0.00
freq.    3174.22  E(vib)   ...       0.00
freq.    3175.07  E(vib)   ...       0.00
freq.    3178.36  E(vib)   ...       0.00
freq.    3179.72  E(vib)   ...       0.00
freq.    3187.81  E(vib)   ...       0.00
freq.    3188.62  E(vib)   ...       0.00
freq.    3190.65  E(vib)   ...       0.00
freq.    3190.88  E(vib)   ...       0.00
freq.    3299.63  E(vib)   ...       0.00
freq.    3303.43  E(vib)   ...       0.00
freq.    3317.56  E(vib)   ...       0.00

------------
INNER ENERGY
------------

The inner energy is: U= E(el) + E(ZPE) + E(vib) + E(rot) + E(trans)
    E(el)   - is the total energy from the electronic structure calculation
              = E(kin-el) + E(nuc-el) + E(el-el) + E(nuc-nuc)
    E(ZPE)  - the the zero temperature vibrational energy from the frequency calculation
    E(vib)  - the the finite temperature correction to E(ZPE) due to population
              of excited vibrational states
    E(rot)  - is the rotational thermal energy
    E(trans)- is the translational thermal energy

Summary of contributions to the inner energy U:
Electronic energy                ...   -462.13545367 Eh
Zero point energy                ...      0.25541422 Eh     160.27 kcal/mol
Thermal vibrational correction   ...      0.00836871 Eh       5.25 kcal/mol
Thermal rotational correction    ...      0.00141627 Eh       0.89 kcal/mol
Thermal translational correction ...      0.00141627 Eh       0.89 kcal/mol
-----------------------------------------------------------------------
Total thermal energy                   -461.86883821 Eh

Summary of corrections to the electronic energy:
(perhaps to be used in another calculation)
Total thermal correction                  0.01120125 Eh       7.03 kcal/mol
Non-thermal (ZPE) correction              0.25541422 Eh     160.27 kcal/mol
-----------------------------------------------------------------------
Total correction                          0.26661547 Eh     167.30 kcal/mol

--------
ENTHALPY
--------

The enthalpy is H = U + kB*T
                kB is Boltzmann's constant
Total free energy                 ...   -461.86883821 Eh
Thermal Enthalpy correction       ...      0.00094421 Eh       0.59 kcal/mol
-----------------------------------------------------------------------
Total Enthalpy                    ...   -461.86789400 Eh

Note: Only C1 symmetry has been detected, increase convergence thresholds
      if your molecule has a higher symmetry. Symmetry factor of 1.0 is
      used for the rotational entropy correction.

Note: Rotational entropy computed according to Herzberg
Infrared and Raman Spectra, Chapter V,1, Van Nostrand Reinhold, 1945
Point Group:  C1, Symmetry Number:   1
Rotational constants in cm-1:     0.066806     0.021047     0.019756

Vibrational entropy computed according to the QRRHO of S. Grimme
Chem.Eur.J. 2012 18 9955

-------
ENTROPY
-------

The entropy contributions are T*S = T*(S(el)+S(vib)+S(rot)+S(trans))
     S(el)   - electronic entropy
     S(vib)  - vibrational entropy
     S(rot)  - rotational entropy
     S(trans)- translational entropy

                             ****ORCA TERMINATED NORMALLY****
TOTAL RUN TIME: 0 days 1 hours 36 minutes 27 seconds 842 msec
