                         Program Version 5.0.4 -  RELEASE  -
|  1> # ORCA 5.0.4 - /users/bwb16179/postgrad/2024_03/DFT_Crest_Conformers/Opt/prot/4_prot_aq_9.inp # write input file
|  2> # Basic Mode
|  3> #
|  4> ! Opt Freq wB97X Def2-SVP D4 SlowConv TightSCF Defgrid2 Def2/J RIJCOSX CPCM(Water)
|  5>
|  6>
|  7>
|  8> %maxcore 4500
|  9>
| 10> %geom
| 11> Maxiter 150
| 12> END
| 13>
| 14> * xyzfile 1 1 4_prot_aq_9.xyz
| 15>
| 16>                          ****END OF INPUT****
 Total Charge           Charge          ....    1
 Multiplicity           Mult            ....    1
 Number of Electrons    NEL             ....   84
Dispersion correction           -0.004062817
FINAL SINGLE POINT ENERGY      -462.131675562546
Dispersion correction            ... Starting D4
Dispersion correction           -0.004046594
FINAL SINGLE POINT ENERGY      -462.135097929114
Dispersion correction            ... Starting D4
Dispersion correction           -0.004043779
FINAL SINGLE POINT ENERGY      -462.135317787148
Dispersion correction            ... Starting D4
FINAL SINGLE POINT ENERGY      -462.135412188189
Dispersion correction           -0.004042612
FINAL SINGLE POINT ENERGY      -462.135427696328
Dispersion correction            ... Starting D4
Dispersion correction           -0.004042614
FINAL SINGLE POINT ENERGY      -462.135433796818
Dispersion correction            ... Starting D4
                    ***********************HURRAY********************

CARTESIAN COORDINATES (ANGSTROEM)
---------------------------------
  N     -1.076046    0.043266    0.374947
  C      0.002880    0.078087   -0.404901
  N      1.081902   -0.156933    0.339664
  H      0.003590    0.269341   -1.476794
  C      0.680665   -0.346259    1.643318
  C     -0.674605   -0.225167    1.664720
  C     -2.487318    0.174580   -0.054431
  C      2.491333   -0.131996   -0.113269
  C     -2.609332    1.105259   -1.249852
  H     -2.991337    0.633964    0.809161
  C     -3.076927   -1.205930   -0.311555
  C      3.055448    1.275095    0.037840
  C      2.615666   -0.674230   -1.528247
  H      3.010718   -0.812153    0.578427
  H      1.394928   -0.550330    2.438894
  H     -1.388298   -0.310577    2.482118
  H     -2.166627    0.663241   -2.156300
  H     -2.132925    2.077181   -1.053652
  H     -3.675430    1.278447   -1.453068
  H     -4.144655   -1.107364   -0.555505
  H     -2.983386   -1.851172    0.574462
  H     -2.569087   -1.691788   -1.159555
  H      4.119024    1.275777   -0.241334
  H      2.970100    1.629433    1.075847
  H      2.521452    1.976883   -0.622463
  H      3.681738   -0.770948   -1.777200
  H      2.163707    0.008773   -2.264353
  H      2.146629   -1.664744   -1.621514

 Multiplicity           Mult            ....    1
 Number of Electrons    NEL             ....   84
 Basis Dimension        Dim             ....  239

ORBITAL ENERGIES
----------------

  NO   OCC          E(Eh)            E(eV)
   0   2.0000     -14.509965      -394.8362
   1   2.0000     -14.509711      -394.8293
   2   2.0000     -10.383911      -282.5606
   3   2.0000     -10.337631      -281.3012
   4   2.0000     -10.337516      -281.2981
   5   2.0000     -10.334288      -281.2103
   6   2.0000     -10.333698      -281.1942
   7   2.0000     -10.276694      -279.6431
   8   2.0000     -10.276347      -279.6336
   9   2.0000     -10.274336      -279.5789
  10   2.0000     -10.274315      -279.5783
  11   2.0000      -1.215663       -33.0799
  12   2.0000      -1.095314       -29.8050
  13   2.0000      -0.966279       -26.2938
  14   2.0000      -0.917200       -24.9583
  15   2.0000      -0.915113       -24.9015
  16   2.0000      -0.825065       -22.4512
  17   2.0000      -0.822899       -22.3922
  18   2.0000      -0.805908       -21.9299
  19   2.0000      -0.773309       -21.0428
  20   2.0000      -0.731737       -19.9116
  21   2.0000      -0.724803       -19.7229
  22   2.0000      -0.652421       -17.7533
  23   2.0000      -0.633998       -17.2520
  24   2.0000      -0.605365       -16.4728
  25   2.0000      -0.598228       -16.2786
  26   2.0000      -0.585364       -15.9286
  27   2.0000      -0.581377       -15.8201
  28   2.0000      -0.564806       -15.3692
  29   2.0000      -0.562080       -15.2950
  30   2.0000      -0.544438       -14.8149
  31   2.0000      -0.518901       -14.1200
  32   2.0000      -0.501262       -13.6400
  33   2.0000      -0.497907       -13.5487
  34   2.0000      -0.496902       -13.5214
  35   2.0000      -0.492300       -13.3962
  36   2.0000      -0.475215       -12.9313
  37   2.0000      -0.464267       -12.6333
  38   2.0000      -0.460311       -12.5257
  39   2.0000      -0.457864       -12.4591
  40   2.0000      -0.413018       -11.2388
  41   2.0000      -0.375278       -10.2118
  42   0.0000       0.059964         1.6317
  43   0.0000       0.093482         2.5438
  44   0.0000       0.137095         3.7305
  45   0.0000       0.149265         4.0617
  46   0.0000       0.157305         4.2805

MULLIKEN ATOMIC CHARGES
-----------------------
   0 N :   -0.198211
   1 C :    0.218571
   2 N :   -0.197550
   3 H :    0.130208
   4 C :    0.066106
   5 C :    0.065082
   6 C :   -0.037631
   7 C :   -0.039517
   8 C :   -0.043480
   9 H :    0.077552
  10 C :    0.000117
  11 C :    0.000755
  12 C :   -0.041727
  13 H :    0.077484
  14 H :    0.105086
  15 H :    0.105179
  16 H :    0.058523
  17 H :    0.064138
  18 H :    0.068471
  19 H :    0.062612
  20 H :    0.053948
  21 H :    0.049133
  22 H :    0.062476
  23 H :    0.054343
  24 H :    0.048980
  25 H :    0.067842
  26 H :    0.057586
  27 H :    0.063923
Sum of atomic charges:    1.0000000

LOEWDIN ATOMIC CHARGES
----------------------
   0 N :    0.098065
   1 C :    0.121644
   2 N :    0.098015
   3 H :    0.065580
   4 C :    0.019805
   5 C :    0.018921
   6 C :    0.044092
   7 C :    0.043936
   8 C :   -0.056953
   9 H :    0.049021
  10 C :   -0.053299
  11 C :   -0.053469
  12 C :   -0.056757
  13 H :    0.049026
  14 H :    0.062603
  15 H :    0.062459
  16 H :    0.037359
  17 H :    0.039875
  18 H :    0.049334
  19 H :    0.044789
  20 H :    0.036624
  21 H :    0.036099
  22 H :    0.044658
  23 H :    0.036866
  24 H :    0.035936
  25 H :    0.048771
  26 H :    0.037159
  27 H :    0.039842

  Mayer bond orders larger than 0.100000
B(  0-N ,  1-C ) :   1.3525 B(  0-N ,  5-C ) :   1.1744 B(  0-N ,  6-C ) :   0.8446
B(  1-C ,  2-N ) :   1.3503 B(  1-C ,  3-H ) :   0.9673 B(  2-N ,  4-C ) :   1.1751
B(  2-N ,  7-C ) :   0.8447 B(  4-C ,  5-C ) :   1.5905 B(  4-C , 14-H ) :   0.9868
B(  5-C , 15-H ) :   0.9866 B(  6-C ,  8-C ) :   1.0766 B(  6-C ,  9-H ) :   0.9409
B(  6-C , 10-C ) :   1.0675 B(  7-C , 11-C ) :   1.0677 B(  7-C , 12-C ) :   1.0750
B(  7-C , 13-H ) :   0.9408 B(  8-C , 16-H ) :   0.9603 B(  8-C , 17-H ) :   0.9676
B(  8-C , 18-H ) :   0.9642 B( 10-C , 19-H ) :   0.9714 B( 10-C , 20-H ) :   0.9657
B( 10-C , 21-H ) :   0.9628 B( 11-C , 22-H ) :   0.9716 B( 11-C , 23-H ) :   0.9658
B( 11-C , 24-H ) :   0.9625 B( 12-C , 25-H ) :   0.9648 B( 12-C , 26-H ) :   0.9610
B( 12-C , 27-H ) :   0.9680

Dispersion correction           -0.004042511
FINAL SINGLE POINT ENERGY      -462.135435060089

DIPOLE MOMENT
-------------
                                X             Y             Z
Electronic contribution:      0.03880      -1.00994       6.19812
Nuclear contribution   :     -0.03898       0.98150      -5.99425
                        -----------------------------------------
Total Dipole Moment    :     -0.00018      -0.02844       0.20387
                        -----------------------------------------
Magnitude (a.u.)       :      0.20584
Magnitude (Debye)      :      0.52321

Dispersion correction in the Hessian             ... Starting D4

VIBRATIONAL FREQUENCIES
-----------------------

Scaling factor for frequencies =  1.000000000  (already applied!)

   0:         0.00 cm**-1
   1:         0.00 cm**-1
   2:         0.00 cm**-1
   3:         0.00 cm**-1
   4:         0.00 cm**-1
   5:         0.00 cm**-1
   6:        22.11 cm**-1
   7:        33.42 cm**-1
   8:        96.69 cm**-1
   9:       139.59 cm**-1
  10:       163.53 cm**-1
  11:       234.12 cm**-1
  12:       245.50 cm**-1
  13:       284.60 cm**-1
  14:       284.87 cm**-1
  15:       302.69 cm**-1
  16:       321.33 cm**-1
  17:       342.26 cm**-1
  18:       414.07 cm**-1
  19:       442.76 cm**-1
  20:       475.21 cm**-1
  21:       511.79 cm**-1
  22:       604.30 cm**-1
  23:       675.31 cm**-1
  24:       681.52 cm**-1
  25:       696.63 cm**-1
  26:       771.08 cm**-1
  27:       889.86 cm**-1
  28:       912.31 cm**-1
  29:       916.95 cm**-1
  30:       917.89 cm**-1
  31:       940.82 cm**-1
  32:       943.33 cm**-1
  33:       964.07 cm**-1
  34:       968.20 cm**-1
  35:      1026.10 cm**-1
  36:      1037.13 cm**-1
  37:      1105.00 cm**-1
  38:      1125.87 cm**-1
  39:      1136.89 cm**-1
  40:      1167.94 cm**-1
  41:      1172.08 cm**-1
  42:      1174.54 cm**-1
  43:      1191.80 cm**-1
  44:      1216.88 cm**-1
  45:      1269.46 cm**-1
  46:      1338.25 cm**-1
  47:      1350.16 cm**-1
  48:      1353.08 cm**-1
  49:      1367.50 cm**-1
  50:      1392.20 cm**-1
  51:      1403.46 cm**-1
  52:      1404.85 cm**-1
  53:      1407.67 cm**-1
  54:      1410.52 cm**-1
  55:      1445.70 cm**-1
  56:      1446.16 cm**-1
  57:      1450.79 cm**-1
  58:      1455.66 cm**-1
  59:      1461.29 cm**-1
  60:      1463.78 cm**-1
  61:      1470.90 cm**-1
  62:      1476.02 cm**-1
  63:      1485.33 cm**-1
  64:      1509.34 cm**-1
  65:      1648.98 cm**-1
  66:      1650.64 cm**-1
  67:      3070.19 cm**-1
  68:      3070.81 cm**-1
  69:      3074.51 cm**-1
  70:      3076.36 cm**-1
  71:      3133.20 cm**-1
  72:      3133.54 cm**-1
  73:      3175.61 cm**-1
  74:      3175.75 cm**-1
  75:      3178.30 cm**-1
  76:      3179.55 cm**-1
  77:      3186.72 cm**-1
  78:      3187.83 cm**-1
  79:      3190.50 cm**-1
  80:      3191.53 cm**-1
  81:      3299.17 cm**-1
  82:      3313.99 cm**-1
  83:      3318.17 cm**-1

IR SPECTRUM
-----------

 Mode   freq       eps      Int      T**2         TX        TY        TZ
       cm**-1   L/(mol*cm) km/mol    a.u.
----------------------------------------------------------------------------
  6:     22.11   0.000042    0.21  0.000592  ( 0.004332 -0.023233  0.005789)
  7:     33.42   0.000033    0.17  0.000312  (-0.000903  0.010073  0.014497)
  8:     96.69   0.000049    0.25  0.000157  (-0.006835 -0.010441 -0.001144)
  9:    139.59   0.000005    0.03  0.000012  ( 0.000640 -0.000798  0.003295)
 10:    163.53   0.000000    0.00  0.000000  (-0.000051  0.000287 -0.000068)
 11:    234.12   0.000014    0.07  0.000019  (-0.004258  0.000039 -0.000868)
 12:    245.50   0.000009    0.05  0.000012  (-0.000838 -0.000919  0.003187)
 13:    284.60   0.000020    0.10  0.000022  (-0.000754  0.003617  0.002945)
 14:    284.87   0.000021    0.10  0.000023  (-0.001508  0.003751 -0.002491)
 15:    302.69   0.000070    0.36  0.000072  ( 0.007976  0.002901 -0.000678)
 16:    321.33   0.000013    0.07  0.000013  ( 0.000336 -0.000340 -0.003503)
 17:    342.26   0.000044    0.22  0.000040  (-0.005688  0.002773 -0.000571)
 18:    414.07   0.000063    0.32  0.000048  (-0.003145  0.006123  0.000684)
 19:    442.76   0.000075    0.38  0.000053  (-0.000122  0.001245 -0.007185)
 20:    475.21   0.000003    0.02  0.000002  (-0.000945  0.000348 -0.001097)
 21:    511.79   0.000283    1.43  0.000173  (-0.011433  0.006424  0.000828)
 22:    604.30   0.000425    2.15  0.000219  ( 0.000334 -0.001859  0.014690)
 23:    675.31   0.013563   68.54  0.006268  (-0.000597  0.078003  0.013519)
 24:    681.52   0.000107    0.54  0.000049  ( 0.000833 -0.003167 -0.006202)
 25:    696.63   0.000640    3.24  0.000287  (-0.011974 -0.011897 -0.001381)
 26:    771.08   0.009415   47.58  0.003810  ( 0.008699  0.060219  0.010404)
 27:    889.86   0.005267   26.62  0.001847  ( 0.009034  0.041317  0.007639)
 28:    912.31   0.000185    0.93  0.000063  ( 0.000599 -0.000528  0.007911)
 29:    916.95   0.000032    0.16  0.000011  (-0.000539 -0.002664  0.001859)
 30:    917.89   0.000504    2.55  0.000171  (-0.011202  0.006755  0.000351)
 31:    940.82   0.000778    3.93  0.000258  ( 0.001325  0.015350 -0.004539)
 32:    943.33   0.000799    4.04  0.000264  ( 0.000577  0.013480  0.009067)
 33:    964.07   0.000211    1.06  0.000068  (-0.000749  0.006360 -0.005215)
 34:    968.20   0.000215    1.08  0.000069  ( 0.000591 -0.006326 -0.005367)
 35:   1026.10   0.003432   17.35  0.001044  (-0.032150  0.003104  0.000774)
 36:   1037.13   0.000107    0.54  0.000032  ( 0.001299 -0.001260  0.005386)
 37:   1105.00   0.003753   18.97  0.001060  (-0.002071 -0.005696  0.031987)
 38:   1125.87   0.000510    2.58  0.000141  ( 0.011241  0.002993  0.002469)
 39:   1136.89   0.000372    1.88  0.000102  ( 0.000572  0.001609 -0.009959)
 40:   1167.94   0.015894   80.32  0.004247  ( 0.064997 -0.004701 -0.000431)
 41:   1172.08   0.000310    1.57  0.000083  (-0.004409  0.001921 -0.007708)
 42:   1174.54   0.006734   34.03  0.001789  (-0.027011  0.032178  0.004912)
 43:   1191.80   0.001053    5.32  0.000276  (-0.004279  0.001417 -0.015984)
 44:   1216.88   0.033083  167.19  0.008484  (-0.092100  0.000686  0.001108)
 45:   1269.46   0.007634   38.58  0.001877  ( 0.043151  0.003826  0.000021)
 46:   1338.25   0.000071    0.36  0.000017  ( 0.001728  0.000551 -0.003652)
 47:   1350.16   0.000284    1.44  0.000066  (-0.007653  0.002360 -0.001249)
 48:   1353.08   0.000327    1.65  0.000075  (-0.008148 -0.001275  0.002735)
 49:   1367.50   0.010243   51.76  0.002337  ( 0.047775  0.007224  0.001689)
 50:   1392.20   0.002188   11.06  0.000491  (-0.000122  0.002832 -0.021965)
 51:   1403.46   0.007444   37.62  0.001655  ( 0.009119  0.039633  0.001130)
 52:   1404.85   0.000084    0.43  0.000019  ( 0.003685 -0.001833 -0.001324)
 53:   1407.67   0.004669   23.59  0.001035  ( 0.017361  0.001218  0.027057)
 54:   1410.52   0.006648   33.60  0.001471  ( 0.010296  0.006146 -0.036428)
 55:   1445.70   0.000034    0.17  0.000007  (-0.002064  0.001262  0.001244)
 56:   1446.16   0.000002    0.01  0.000000  ( 0.000381 -0.000472  0.000206)
 57:   1450.79   0.000248    1.25  0.000053  ( 0.000805 -0.007261  0.000035)
 58:   1455.66   0.002965   14.98  0.000636  (-0.000175 -0.002675  0.025067)
 59:   1461.29   0.005706   28.84  0.001219  ( 0.023722 -0.022199 -0.012771)
 60:   1463.78   0.004105   20.75  0.000875  (-0.012581  0.010938 -0.024439)
 61:   1470.90   0.001012    5.12  0.000215  (-0.011300 -0.008135  0.004574)
 62:   1476.02   0.000054    0.27  0.000011  (-0.000451 -0.001155 -0.003149)
 63:   1485.33   0.000617    3.12  0.000130  (-0.010720 -0.003761  0.000688)
 64:   1509.34   0.000325    1.64  0.000067  ( 0.000501  0.001683 -0.008002)
 65:   1648.98   0.027731  140.14  0.005248  (-0.072323  0.000150 -0.004174)
 66:   1650.64   0.003629   18.34  0.000686  ( 0.018956  0.003251 -0.017781)
 67:   3070.19   0.002510   12.68  0.000255  (-0.004887 -0.014841 -0.003308)
 68:   3070.81   0.002397   12.11  0.000244  (-0.005433 -0.014630 -0.000177)
 69:   3074.51   0.001607    8.12  0.000163  (-0.001060 -0.004706  0.011827)
 70:   3076.36   0.001787    9.03  0.000181  ( 0.001232  0.002143  0.013236)
 71:   3133.20   0.000940    4.75  0.000094  (-0.005899  0.006120 -0.004626)
 72:   3133.54   0.000976    4.93  0.000097  (-0.005960  0.004399  0.006506)
 73:   3175.61   0.001601    8.09  0.000157  ( 0.005417 -0.000089  0.011313)
 74:   3175.75   0.000936    4.73  0.000092  (-0.000283 -0.009566 -0.000595)
 75:   3178.30   0.005160   26.08  0.000507  (-0.009387  0.007252  0.019130)
 76:   3179.55   0.004286   21.66  0.000421  ( 0.008319 -0.014459  0.011934)
 77:   3186.72   0.002062   10.42  0.000202  (-0.010036  0.008910 -0.004668)
 78:   3187.83   0.001936    9.78  0.000189  (-0.009368  0.007154  0.007110)
 79:   3190.50   0.002315   11.70  0.000226  (-0.014545 -0.003441 -0.001743)
 80:   3191.53   0.002226   11.25  0.000218  ( 0.014119  0.004069 -0.001325)
 81:   3299.17   0.005405   27.32  0.000511  (-0.022526  0.001630  0.001107)
 82:   3313.99   0.014273   72.13  0.001344  (-0.000694  0.006572 -0.036061)
 83:   3318.17   0.000022    0.11  0.000002  (-0.001008  0.000402 -0.000959)

--------------------------
THERMOCHEMISTRY AT 298.15K
--------------------------

Temperature         ... 298.15 K
Pressure            ... 1.00 atm
Total Mass          ... 153.25 AMU

Throughout the following assumptions are being made:
  (1) The electronic state is orbitally nondegenerate
  (2) There are no thermally accessible electronically excited states
  (3) Hindered rotations indicated by low frequency modes are not
      treated as such but are treated as vibrations and this may
      cause some error
  (4) All equations used are the standard statistical mechanics
      equations for an ideal gas
  (5) All vibrations are strictly harmonic

freq.      22.11  E(vib)   ...       0.56
freq.      33.42  E(vib)   ...       0.55
freq.      96.69  E(vib)   ...       0.46
freq.     139.59  E(vib)   ...       0.42
freq.     163.53  E(vib)   ...       0.39
freq.     234.12  E(vib)   ...       0.32
freq.     245.50  E(vib)   ...       0.31
freq.     284.60  E(vib)   ...       0.28
freq.     284.87  E(vib)   ...       0.28
freq.     302.69  E(vib)   ...       0.26
freq.     321.33  E(vib)   ...       0.25
freq.     342.26  E(vib)   ...       0.23
freq.     414.07  E(vib)   ...       0.19
freq.     442.76  E(vib)   ...       0.17
freq.     475.21  E(vib)   ...       0.15
freq.     511.79  E(vib)   ...       0.14
freq.     604.30  E(vib)   ...       0.10
freq.     675.31  E(vib)   ...       0.08
freq.     681.52  E(vib)   ...       0.08
freq.     696.63  E(vib)   ...       0.07
freq.     771.08  E(vib)   ...       0.05
freq.     889.86  E(vib)   ...       0.04
freq.     912.31  E(vib)   ...       0.03
freq.     916.95  E(vib)   ...       0.03
freq.     917.89  E(vib)   ...       0.03
freq.     940.82  E(vib)   ...       0.03
freq.     943.33  E(vib)   ...       0.03
freq.     964.07  E(vib)   ...       0.03
freq.     968.20  E(vib)   ...       0.03
freq.    1026.10  E(vib)   ...       0.02
freq.    1037.13  E(vib)   ...       0.02
freq.    1105.00  E(vib)   ...       0.02
freq.    1125.87  E(vib)   ...       0.01
freq.    1136.89  E(vib)   ...       0.01
freq.    1167.94  E(vib)   ...       0.01
freq.    1172.08  E(vib)   ...       0.01
freq.    1174.54  E(vib)   ...       0.01
freq.    1191.80  E(vib)   ...       0.01
freq.    1216.88  E(vib)   ...       0.01
freq.    1269.46  E(vib)   ...       0.01
freq.    1338.25  E(vib)   ...       0.01
freq.    1350.16  E(vib)   ...       0.01
freq.    1353.08  E(vib)   ...       0.01
freq.    1367.50  E(vib)   ...       0.01
freq.    1392.20  E(vib)   ...       0.00
freq.    1403.46  E(vib)   ...       0.00
freq.    1404.85  E(vib)   ...       0.00
freq.    1407.67  E(vib)   ...       0.00
freq.    1410.52  E(vib)   ...       0.00
freq.    1445.70  E(vib)   ...       0.00
freq.    1446.16  E(vib)   ...       0.00
freq.    1450.79  E(vib)   ...       0.00
freq.    1455.66  E(vib)   ...       0.00
freq.    1461.29  E(vib)   ...       0.00
freq.    1463.78  E(vib)   ...       0.00
freq.    1470.90  E(vib)   ...       0.00
freq.    1476.02  E(vib)   ...       0.00
freq.    1485.33  E(vib)   ...       0.00
freq.    1509.34  E(vib)   ...       0.00
freq.    1648.98  E(vib)   ...       0.00
freq.    1650.64  E(vib)   ...       0.00
freq.    3070.19  E(vib)   ...       0.00
freq.    3070.81  E(vib)   ...       0.00
freq.    3074.51  E(vib)   ...       0.00
freq.    3076.36  E(vib)   ...       0.00
freq.    3133.20  E(vib)   ...       0.00
freq.    3133.54  E(vib)   ...       0.00
freq.    3175.61  E(vib)   ...       0.00
freq.    3175.75  E(vib)   ...       0.00
freq.    3178.30  E(vib)   ...       0.00
freq.    3179.55  E(vib)   ...       0.00
freq.    3186.72  E(vib)   ...       0.00
freq.    3187.83  E(vib)   ...       0.00
freq.    3190.50  E(vib)   ...       0.00
freq.    3191.53  E(vib)   ...       0.00
freq.    3299.17  E(vib)   ...       0.00
freq.    3313.99  E(vib)   ...       0.00
freq.    3318.17  E(vib)   ...       0.00

------------
INNER ENERGY
------------

The inner energy is: U= E(el) + E(ZPE) + E(vib) + E(rot) + E(trans)
    E(el)   - is the total energy from the electronic structure calculation
              = E(kin-el) + E(nuc-el) + E(el-el) + E(nuc-nuc)
    E(ZPE)  - the the zero temperature vibrational energy from the frequency calculation
    E(vib)  - the the finite temperature correction to E(ZPE) due to population
              of excited vibrational states
    E(rot)  - is the rotational thermal energy
    E(trans)- is the translational thermal energy

Summary of contributions to the inner energy U:
Electronic energy                ...   -462.13543506 Eh
Zero point energy                ...      0.25553859 Eh     160.35 kcal/mol
Thermal vibrational correction   ...      0.00923195 Eh       5.79 kcal/mol
Thermal rotational correction    ...      0.00141627 Eh       0.89 kcal/mol
Thermal translational correction ...      0.00141627 Eh       0.89 kcal/mol
-----------------------------------------------------------------------
Total thermal energy                   -461.86783198 Eh

Summary of corrections to the electronic energy:
(perhaps to be used in another calculation)
Total thermal correction                  0.01206449 Eh       7.57 kcal/mol
Non-thermal (ZPE) correction              0.25553859 Eh     160.35 kcal/mol
-----------------------------------------------------------------------
Total correction                          0.26760308 Eh     167.92 kcal/mol

--------
ENTHALPY
--------

The enthalpy is H = U + kB*T
                kB is Boltzmann's constant
Total free energy                 ...   -461.86783198 Eh
Thermal Enthalpy correction       ...      0.00094421 Eh       0.59 kcal/mol
-----------------------------------------------------------------------
Total Enthalpy                    ...   -461.86688777 Eh

Note: Only C1 symmetry has been detected, increase convergence thresholds
      if your molecule has a higher symmetry. Symmetry factor of 1.0 is
      used for the rotational entropy correction.

Note: Rotational entropy computed according to Herzberg
Infrared and Raman Spectra, Chapter V,1, Van Nostrand Reinhold, 1945
Point Group:  C1, Symmetry Number:   1
Rotational constants in cm-1:     0.069271     0.021057     0.019221

Vibrational entropy computed according to the QRRHO of S. Grimme
Chem.Eur.J. 2012 18 9955

-------
ENTROPY
-------

The entropy contributions are T*S = T*(S(el)+S(vib)+S(rot)+S(trans))
     S(el)   - electronic entropy
     S(vib)  - vibrational entropy
     S(rot)  - rotational entropy

                             ****ORCA TERMINATED NORMALLY****
TOTAL RUN TIME: 0 days 1 hours 7 minutes 14 seconds 747 msec
