                         Program Version 5.0.4 -  RELEASE  -
|  1> # ORCA 5.0.4 - /users/bwb16179/postgrad/2024_03/DFT_Crest_Conformers/Opt/prot/4_prot_aq_1.inp # write input file
|  2> # Basic Mode
|  3> #
|  4> ! Opt Freq wB97X Def2-SVP D4 SlowConv TightSCF Defgrid2 Def2/J RIJCOSX CPCM(Water)
|  5>
|  6>
|  7>
|  8> %maxcore 4500
|  9>
| 10> %geom
| 11> Maxiter 150
| 12> END
| 13>
| 14> * xyzfile 1 1 4_prot_aq_1.xyz
| 15>
| 16>                          ****END OF INPUT****
 Total Charge           Charge          ....    1
 Multiplicity           Mult            ....    1
 Number of Electrons    NEL             ....   84
Dispersion correction           -0.003997018
FINAL SINGLE POINT ENERGY      -462.133039579244
Dispersion correction            ... Starting D4
Dispersion correction           -0.003982373
FINAL SINGLE POINT ENERGY      -462.136503231105
Dispersion correction            ... Starting D4
Dispersion correction           -0.003980428
FINAL SINGLE POINT ENERGY      -462.136656950552
Dispersion correction            ... Starting D4
FINAL SINGLE POINT ENERGY      -462.136702003709
Dispersion correction           -0.003980193
FINAL SINGLE POINT ENERGY      -462.136709336581
Dispersion correction            ... Starting D4
Dispersion correction           -0.003980440
FINAL SINGLE POINT ENERGY      -462.136712735036
Dispersion correction            ... Starting D4
                    ***********************HURRAY********************

CARTESIAN COORDINATES (ANGSTROEM)
---------------------------------
  N     -1.083835    0.000837    0.041919
  C      0.000056   -0.002708    0.813241
  N      1.083849    0.001185    0.041783
  H      0.000124   -0.008245    1.903805
  C      0.680591    0.007426   -1.276086
  C     -0.680744    0.007195   -1.276002
  C     -2.479463   -0.002460    0.531680
  C      2.479538   -0.002330    0.531380
  C     -3.189625    1.270998    0.094499
  H     -2.387495   -0.007778    1.628203
  C     -3.187609   -1.272789    0.082219
  C      3.190573    1.269939    0.092184
  C      3.186699   -1.273861    0.083756
  H      2.387693   -0.005849    1.627919
  H      1.389006    0.011710   -2.102367
  H     -1.389264    0.011263   -2.102193
  H     -3.296565    1.310585   -1.001076
  H     -2.642148    2.163765    0.430622
  H     -4.196436    1.293561    0.535572
  H     -2.638561   -2.167814    0.409670
  H     -3.294468   -1.301826   -1.013699
  H     -4.194380   -1.301312    0.523039
  H      2.643884    2.163615    0.427168
  H      3.297328    1.307867   -1.003467
  H      4.197504    1.292326    0.532989
  H      4.193495   -1.302503    0.524515
  H      3.293394   -1.304610   -1.012131
  H      2.637007   -2.167992    0.412570

 Multiplicity           Mult            ....    1
 Number of Electrons    NEL             ....   84
 Basis Dimension        Dim             ....  239

ORBITAL ENERGIES
----------------

  NO   OCC          E(Eh)            E(eV)
   0   2.0000     -14.509629      -394.8271
   1   2.0000     -14.509611      -394.8266
   2   2.0000     -10.384420      -282.5744
   3   2.0000     -10.337775      -281.3052
   4   2.0000     -10.337747      -281.3044
   5   2.0000     -10.335080      -281.2318
   6   2.0000     -10.334507      -281.2162
   7   2.0000     -10.274550      -279.5847
   8   2.0000     -10.274546      -279.5846
   9   2.0000     -10.274540      -279.5845
  10   2.0000     -10.274536      -279.5843
  11   2.0000      -1.216054       -33.0905
  12   2.0000      -1.095855       -29.8197
  13   2.0000      -0.964980       -26.2584
  14   2.0000      -0.921099       -25.0644
  15   2.0000      -0.913116       -24.8471
  16   2.0000      -0.821964       -22.3668
  17   2.0000      -0.821315       -22.3491
  18   2.0000      -0.794084       -21.6081
  19   2.0000      -0.791092       -21.5267
  20   2.0000      -0.734661       -19.9911
  21   2.0000      -0.710115       -19.3232
  22   2.0000      -0.665627       -18.1126
  23   2.0000      -0.627791       -17.0831
  24   2.0000      -0.618141       -16.8205
  25   2.0000      -0.586575       -15.9615
  26   2.0000      -0.584524       -15.9057
  27   2.0000      -0.573266       -15.5994
  28   2.0000      -0.561673       -15.2839
  29   2.0000      -0.557719       -15.1763
  30   2.0000      -0.557214       -15.1626
  31   2.0000      -0.518976       -14.1220
  32   2.0000      -0.503341       -13.6966
  33   2.0000      -0.501535       -13.6475
  34   2.0000      -0.496790       -13.5183
  35   2.0000      -0.489239       -13.3129
  36   2.0000      -0.472187       -12.8489
  37   2.0000      -0.463157       -12.6031
  38   2.0000      -0.459801       -12.5118
  39   2.0000      -0.454900       -12.3785
  40   2.0000      -0.414514       -11.2795
  41   2.0000      -0.375888       -10.2284
  42   0.0000       0.063101         1.7171
  43   0.0000       0.093049         2.5320
  44   0.0000       0.140513         3.8236
  45   0.0000       0.144930         3.9437
  46   0.0000       0.163083         4.4377

MULLIKEN ATOMIC CHARGES
-----------------------
   0 N :   -0.191843
   1 C :    0.218274
   2 N :   -0.191843
   3 H :    0.141403
   4 C :    0.058919
   5 C :    0.058923
   6 C :   -0.050713
   7 C :   -0.050710
   8 C :   -0.011371
   9 H :    0.075458
  10 C :   -0.011389
  11 C :   -0.011467
  12 C :   -0.011294
  13 H :    0.075458
  14 H :    0.107621
  15 H :    0.107621
  16 H :    0.050916
  17 H :    0.057012
  18 H :    0.063810
  19 H :    0.057006
  20 H :    0.050908
  21 H :    0.063826
  22 H :    0.057038
  23 H :    0.050929
  24 H :    0.063814
  25 H :    0.063821
  26 H :    0.050894
  27 H :    0.056980
Sum of atomic charges:    1.0000000

LOEWDIN ATOMIC CHARGES
----------------------
   0 N :    0.098233
   1 C :    0.126246
   2 N :    0.098232
   3 H :    0.071887
   4 C :    0.018507
   5 C :    0.018507
   6 C :    0.043284
   7 C :    0.043286
   8 C :   -0.054610
   9 H :    0.048965
  10 C :   -0.054604
  11 C :   -0.054611
  12 C :   -0.054604
  13 H :    0.048965
  14 H :    0.061121
  15 H :    0.061121
  16 H :    0.036059
  17 H :    0.038241
  18 H :    0.045724
  19 H :    0.038239
  20 H :    0.036054
  21 H :    0.045719
  22 H :    0.038249
  23 H :    0.036059
  24 H :    0.045731
  25 H :    0.045713
  26 H :    0.036054
  27 H :    0.038232

  Mayer bond orders larger than 0.100000
B(  0-N ,  1-C ) :   1.3557 B(  0-N ,  5-C ) :   1.1659 B(  0-N ,  6-C ) :   0.8516
B(  1-C ,  2-N ) :   1.3557 B(  1-C ,  3-H ) :   0.9666 B(  2-N ,  4-C ) :   1.1659
B(  2-N ,  7-C ) :   0.8516 B(  4-C ,  5-C ) :   1.6102 B(  4-C , 14-H ) :   0.9843
B(  5-C , 15-H ) :   0.9843 B(  6-C ,  8-C ) :   1.0702 B(  6-C ,  9-H ) :   0.9390
B(  6-C , 10-C ) :   1.0703 B(  7-C , 11-C ) :   1.0702 B(  7-C , 12-C ) :   1.0703
B(  7-C , 13-H ) :   0.9390 B(  8-C , 16-H ) :   0.9627 B(  8-C , 17-H ) :   0.9672
B(  8-C , 18-H ) :   0.9697 B( 10-C , 19-H ) :   0.9672 B( 10-C , 20-H ) :   0.9626
B( 10-C , 21-H ) :   0.9697 B( 11-C , 22-H ) :   0.9672 B( 11-C , 23-H ) :   0.9627
B( 11-C , 24-H ) :   0.9697 B( 12-C , 25-H ) :   0.9698 B( 12-C , 26-H ) :   0.9626
B( 12-C , 27-H ) :   0.9672

Dispersion correction           -0.003980504
FINAL SINGLE POINT ENERGY      -462.136713606931

DIPOLE MOMENT
-------------
                                X             Y             Z
Electronic contribution:     -0.00003       0.01399      -0.44722
Nuclear contribution   :      0.00006      -0.01573       0.88341
                        -----------------------------------------
Total Dipole Moment    :      0.00003      -0.00174       0.43619
                        -----------------------------------------
Magnitude (a.u.)       :      0.43619
Magnitude (Debye)      :      1.10872

Dispersion correction in the Hessian             ... Starting D4

VIBRATIONAL FREQUENCIES
-----------------------

Scaling factor for frequencies =  1.000000000  (already applied!)

   0:         0.00 cm**-1
   1:         0.00 cm**-1
   2:         0.00 cm**-1
   3:         0.00 cm**-1
   4:         0.00 cm**-1
   5:         0.00 cm**-1
   6:        -5.15 cm**-1 ***imaginary mode***
   7:        15.74 cm**-1
   8:       110.67 cm**-1
   9:       147.15 cm**-1
  10:       147.49 cm**-1
  11:       232.10 cm**-1
  12:       232.11 cm**-1
  13:       250.00 cm**-1
  14:       264.00 cm**-1
  15:       268.78 cm**-1
  16:       290.43 cm**-1
  17:       351.31 cm**-1
  18:       395.43 cm**-1
  19:       442.28 cm**-1
  20:       451.43 cm**-1
  21:       550.48 cm**-1
  22:       625.96 cm**-1
  23:       671.91 cm**-1
  24:       677.42 cm**-1
  25:       687.43 cm**-1
  26:       764.15 cm**-1
  27:       891.37 cm**-1
  28:       910.49 cm**-1
  29:       913.30 cm**-1
  30:       916.72 cm**-1
  31:       940.64 cm**-1
  32:       940.74 cm**-1
  33:       959.83 cm**-1
  34:       960.03 cm**-1
  35:      1033.45 cm**-1
  36:      1042.02 cm**-1
  37:      1086.42 cm**-1
  38:      1104.78 cm**-1
  39:      1110.26 cm**-1
  40:      1166.94 cm**-1
  41:      1171.84 cm**-1
  42:      1173.28 cm**-1
  43:      1194.81 cm**-1
  44:      1217.51 cm**-1
  45:      1265.90 cm**-1
  46:      1344.92 cm**-1
  47:      1345.64 cm**-1
  48:      1347.74 cm**-1
  49:      1363.97 cm**-1
  50:      1398.42 cm**-1
  51:      1400.72 cm**-1
  52:      1401.15 cm**-1
  53:      1405.38 cm**-1
  54:      1412.02 cm**-1
  55:      1444.26 cm**-1
  56:      1444.27 cm**-1
  57:      1455.83 cm**-1
  58:      1455.88 cm**-1
  59:      1457.77 cm**-1
  60:      1457.94 cm**-1
  61:      1464.93 cm**-1
  62:      1466.62 cm**-1
  63:      1493.79 cm**-1
  64:      1510.30 cm**-1
  65:      1645.31 cm**-1
  66:      1649.72 cm**-1
  67:      3071.87 cm**-1
  68:      3071.88 cm**-1
  69:      3073.73 cm**-1
  70:      3073.81 cm**-1
  71:      3128.56 cm**-1
  72:      3128.63 cm**-1
  73:      3174.77 cm**-1
  74:      3174.78 cm**-1
  75:      3177.92 cm**-1
  76:      3177.97 cm**-1
  77:      3188.95 cm**-1
  78:      3188.95 cm**-1
  79:      3190.78 cm**-1
  80:      3190.81 cm**-1
  81:      3298.95 cm**-1
  82:      3302.53 cm**-1
  83:      3320.16 cm**-1

IR SPECTRUM
-----------

 Mode   freq       eps      Int      T**2         TX        TY        TZ
       cm**-1   L/(mol*cm) km/mol    a.u.
----------------------------------------------------------------------------
  7:     15.74   0.000000    0.00  0.000000  (-0.000036  0.000019  0.000123)
  8:    110.67   0.000072    0.36  0.000202  ( 0.000022  0.014199  0.000131)
  9:    147.15   0.000000    0.00  0.000001  ( 0.000007  0.000005 -0.000867)
 10:    147.49   0.000069    0.35  0.000145  (-0.000000 -0.000017  0.012054)
 11:    232.10   0.000004    0.02  0.000005  ( 0.000009 -0.002309 -0.000230)
 12:    232.11   0.000002    0.01  0.000003  ( 0.000051  0.001794  0.000200)
 13:    250.00   0.000011    0.05  0.000013  ( 0.003621 -0.000038 -0.000013)
 14:    264.00   0.000032    0.16  0.000038  (-0.000010  0.000158 -0.006142)
 15:    268.78   0.000020    0.10  0.000023  (-0.000009  0.000185 -0.004815)
 16:    290.43   0.000080    0.40  0.000086  (-0.009262  0.000017  0.000008)
 17:    351.31   0.000008    0.04  0.000007  (-0.002603 -0.000010 -0.000001)
 18:    395.43   0.000220    1.11  0.000173  (-0.000024 -0.013167 -0.000015)
 19:    442.28   0.000000    0.00  0.000000  ( 0.000069  0.000002  0.000019)
 20:    451.43   0.000189    0.96  0.000131  ( 0.000001 -0.000033  0.011437)
 21:    550.48   0.000108    0.55  0.000061  ( 0.007828  0.000019  0.000001)
 22:    625.96   0.000037    0.19  0.000019  (-0.000000 -0.000169 -0.004314)
 23:    671.91   0.000871    4.40  0.000405  (-0.020117 -0.000050  0.000002)
 24:    677.42   0.015204   76.83  0.007004  (-0.000006 -0.083688 -0.000416)
 25:    687.43   0.000000    0.00  0.000000  ( 0.000212  0.000005 -0.000013)
 26:    764.15   0.008547   43.19  0.003490  (-0.000014  0.059079  0.000324)
 27:    891.37   0.005681   28.71  0.001989  ( 0.000028 -0.044595 -0.000248)
 28:    910.49   0.000361    1.83  0.000124  ( 0.011127 -0.000000 -0.000001)
 29:    913.30   0.000000    0.00  0.000000  (-0.000007 -0.000012 -0.000002)
 30:    916.72   0.000751    3.80  0.000256  ( 0.000001  0.000053  0.015989)
 31:    940.64   0.000005    0.02  0.000002  ( 0.000014  0.001270  0.000014)
 32:    940.74   0.001263    6.38  0.000419  ( 0.000003  0.020465 -0.000050)
 33:    959.83   0.000000    0.00  0.000000  ( 0.000074  0.000116  0.000023)
 34:    960.03   0.000401    2.03  0.000130  (-0.000011 -0.011413  0.000013)
 35:   1033.45   0.004013   20.28  0.001212  (-0.034811  0.000001  0.000003)
 36:   1042.02   0.000319    1.61  0.000096  ( 0.000003 -0.000124  0.009779)
 37:   1086.42   0.000014    0.07  0.000004  (-0.002027  0.000001 -0.000001)
 38:   1104.78   0.006267   31.67  0.001770  (-0.000004  0.000331 -0.042072)
 39:   1110.26   0.000128    0.65  0.000036  (-0.000001 -0.000129  0.006007)
 40:   1166.94   0.020331  102.75  0.005437  ( 0.073736 -0.000019 -0.000005)
 41:   1171.84   0.000000    0.00  0.000000  ( 0.000003  0.000030  0.000007)
 42:   1173.28   0.004165   21.05  0.001108  ( 0.000113  0.033282  0.000210)
 43:   1194.81   0.000142    0.72  0.000037  (-0.000006 -0.000105  0.006092)
 44:   1217.51   0.028799  145.54  0.007382  ( 0.085917 -0.000013 -0.000005)
 45:   1265.90   0.009136   46.17  0.002252  (-0.047458  0.000002  0.000004)
 46:   1344.92   0.000000    0.00  0.000000  (-0.000054 -0.000016 -0.000036)
 47:   1345.64   0.000102    0.51  0.000024  (-0.000014 -0.004849 -0.000163)
 48:   1347.74   0.001150    5.81  0.000266  (-0.000000 -0.000187  0.016315)
 49:   1363.97   0.010670   53.92  0.002441  (-0.049409  0.000025  0.000001)
 50:   1398.42   0.000610    3.08  0.000136  (-0.000003 -0.000782 -0.011638)
 51:   1400.72   0.000001    0.01  0.000000  ( 0.000528  0.000100 -0.000105)
 52:   1401.15   0.008579   43.36  0.001911  ( 0.000117  0.043712 -0.000027)
 53:   1405.38   0.005076   25.65  0.001127  (-0.033573  0.000140  0.000003)
 54:   1412.02   0.003022   15.27  0.000668  ( 0.000003  0.000025  0.025845)
 55:   1444.26   0.000010    0.05  0.000002  (-0.000113 -0.001408  0.000305)
 56:   1444.27   0.000012    0.06  0.000003  ( 0.000086 -0.001566  0.000323)
 57:   1455.83   0.000000    0.00  0.000000  ( 0.000065 -0.000105 -0.000038)
 58:   1455.88   0.000695    3.51  0.000149  ( 0.000034 -0.012204  0.000156)
 59:   1457.77   0.000953    4.82  0.000204  ( 0.014279  0.000003 -0.000408)
 60:   1457.94   0.007112   35.94  0.001522  (-0.000149  0.000126 -0.039016)
 61:   1464.93   0.002802   14.16  0.000597  (-0.000032  0.000110 -0.024433)
 62:   1466.62   0.000853    4.31  0.000182  ( 0.013474  0.000003 -0.000057)
 63:   1493.79   0.001275    6.44  0.000266  ( 0.016322 -0.000010 -0.000002)
 64:   1510.30   0.000189    0.96  0.000039  ( 0.000000 -0.000041  0.006249)
 65:   1645.31   0.040983  207.11  0.007773  ( 0.088166 -0.000005 -0.000008)
 66:   1649.72   0.002116   10.69  0.000400  ( 0.000015 -0.000105  0.020008)
 67:   3071.87   0.000002    0.01  0.000000  (-0.000100  0.000430 -0.000054)
 68:   3071.88   0.005747   29.04  0.000584  (-0.000064  0.024162  0.000029)
 69:   3073.73   0.001289    6.51  0.000131  ( 0.011437  0.000134  0.000039)
 70:   3073.81   0.001343    6.79  0.000136  (-0.000039  0.000091  0.011676)
 71:   3128.56   0.000025    0.13  0.000003  ( 0.000346  0.000018 -0.001555)
 72:   3128.63   0.001852    9.36  0.000185  (-0.000041  0.000045 -0.013593)
 73:   3174.77   0.001912    9.66  0.000188  ( 0.000021  0.013702  0.000388)
 74:   3174.78   0.000006    0.03  0.000001  (-0.000015  0.000726  0.000175)
 75:   3177.92   0.000015    0.07  0.000001  ( 0.001198 -0.000077  0.000020)
 76:   3177.97   0.009632   48.67  0.000946  ( 0.000003 -0.000270  0.030753)
 77:   3188.95   0.002399   12.13  0.000235  (-0.000103 -0.015322 -0.000052)
 78:   3188.95   0.000011    0.06  0.000001  (-0.000042  0.001036  0.000037)
 79:   3190.78   0.005647   28.54  0.000552  (-0.023500  0.000065  0.000062)
 80:   3190.81   0.000478    2.41  0.000047  ( 0.000202 -0.000022  0.006832)
 81:   3298.95   0.011707   59.16  0.001107  (-0.000003  0.000177 -0.033278)
 82:   3302.53   0.005032   25.43  0.000475  (-0.021805 -0.000003  0.000002)
 83:   3320.16   0.003336   16.86  0.000314  (-0.000001 -0.000098  0.017706)

--------------------------
THERMOCHEMISTRY AT 298.15K
--------------------------

Temperature         ... 298.15 K
Pressure            ... 1.00 atm
Total Mass          ... 153.25 AMU

Throughout the following assumptions are being made:
  (1) The electronic state is orbitally nondegenerate
  (2) There are no thermally accessible electronically excited states
  (3) Hindered rotations indicated by low frequency modes are not
      treated as such but are treated as vibrations and this may
      cause some error
  (4) All equations used are the standard statistical mechanics
      equations for an ideal gas
  (5) All vibrations are strictly harmonic

freq.      15.74  E(vib)   ...       0.57
freq.     110.67  E(vib)   ...       0.45
freq.     147.15  E(vib)   ...       0.41
freq.     147.49  E(vib)   ...       0.41
freq.     232.10  E(vib)   ...       0.32
freq.     232.11  E(vib)   ...       0.32
freq.     250.00  E(vib)   ...       0.31
freq.     264.00  E(vib)   ...       0.29
freq.     268.78  E(vib)   ...       0.29
freq.     290.43  E(vib)   ...       0.27
freq.     351.31  E(vib)   ...       0.23
freq.     395.43  E(vib)   ...       0.20
freq.     442.28  E(vib)   ...       0.17
freq.     451.43  E(vib)   ...       0.16
freq.     550.48  E(vib)   ...       0.12
freq.     625.96  E(vib)   ...       0.09
freq.     671.91  E(vib)   ...       0.08
freq.     677.42  E(vib)   ...       0.08
freq.     687.43  E(vib)   ...       0.07
freq.     764.15  E(vib)   ...       0.06
freq.     891.37  E(vib)   ...       0.04
freq.     910.49  E(vib)   ...       0.03
freq.     913.30  E(vib)   ...       0.03
freq.     916.72  E(vib)   ...       0.03
freq.     940.64  E(vib)   ...       0.03
freq.     940.74  E(vib)   ...       0.03
freq.     959.83  E(vib)   ...       0.03
freq.     960.03  E(vib)   ...       0.03
freq.    1033.45  E(vib)   ...       0.02
freq.    1042.02  E(vib)   ...       0.02
freq.    1086.42  E(vib)   ...       0.02
freq.    1104.78  E(vib)   ...       0.02
freq.    1110.26  E(vib)   ...       0.02
freq.    1166.94  E(vib)   ...       0.01
freq.    1171.84  E(vib)   ...       0.01
freq.    1173.28  E(vib)   ...       0.01
freq.    1194.81  E(vib)   ...       0.01
freq.    1217.51  E(vib)   ...       0.01
freq.    1265.90  E(vib)   ...       0.01
freq.    1344.92  E(vib)   ...       0.01
freq.    1345.64  E(vib)   ...       0.01
freq.    1347.74  E(vib)   ...       0.01
freq.    1363.97  E(vib)   ...       0.01
freq.    1398.42  E(vib)   ...       0.00
freq.    1400.72  E(vib)   ...       0.00
freq.    1401.15  E(vib)   ...       0.00
freq.    1405.38  E(vib)   ...       0.00
freq.    1412.02  E(vib)   ...       0.00
freq.    1444.26  E(vib)   ...       0.00
freq.    1444.27  E(vib)   ...       0.00
freq.    1455.83  E(vib)   ...       0.00
freq.    1455.88  E(vib)   ...       0.00
freq.    1457.77  E(vib)   ...       0.00
freq.    1457.94  E(vib)   ...       0.00
freq.    1464.93  E(vib)   ...       0.00
freq.    1466.62  E(vib)   ...       0.00
freq.    1493.79  E(vib)   ...       0.00
freq.    1510.30  E(vib)   ...       0.00
freq.    1645.31  E(vib)   ...       0.00
freq.    1649.72  E(vib)   ...       0.00
freq.    3071.87  E(vib)   ...       0.00
freq.    3071.88  E(vib)   ...       0.00
freq.    3073.73  E(vib)   ...       0.00
freq.    3073.81  E(vib)   ...       0.00
freq.    3128.56  E(vib)   ...       0.00
freq.    3128.63  E(vib)   ...       0.00
freq.    3174.77  E(vib)   ...       0.00
freq.    3174.78  E(vib)   ...       0.00
freq.    3177.92  E(vib)   ...       0.00
freq.    3177.97  E(vib)   ...       0.00
freq.    3188.95  E(vib)   ...       0.00
freq.    3188.95  E(vib)   ...       0.00
freq.    3190.78  E(vib)   ...       0.00
freq.    3190.81  E(vib)   ...       0.00
freq.    3298.95  E(vib)   ...       0.00
freq.    3302.53  E(vib)   ...       0.00
freq.    3320.16  E(vib)   ...       0.00

------------
INNER ENERGY
------------

The inner energy is: U= E(el) + E(ZPE) + E(vib) + E(rot) + E(trans)
    E(el)   - is the total energy from the electronic structure calculation
              = E(kin-el) + E(nuc-el) + E(el-el) + E(nuc-nuc)
    E(ZPE)  - the the zero temperature vibrational energy from the frequency calculation
    E(vib)  - the the finite temperature correction to E(ZPE) due to population
              of excited vibrational states
    E(rot)  - is the rotational thermal energy
    E(trans)- is the translational thermal energy

Summary of contributions to the inner energy U:
Electronic energy                ...   -462.13671361 Eh
Zero point energy                ...      0.25487739 Eh     159.94 kcal/mol
Thermal vibrational correction   ...      0.00855052 Eh       5.37 kcal/mol
Thermal rotational correction    ...      0.00141627 Eh       0.89 kcal/mol
Thermal translational correction ...      0.00141627 Eh       0.89 kcal/mol
-----------------------------------------------------------------------
Total thermal energy                   -461.87045316 Eh

Summary of corrections to the electronic energy:
(perhaps to be used in another calculation)
Total thermal correction                  0.01138306 Eh       7.14 kcal/mol
Non-thermal (ZPE) correction              0.25487739 Eh     159.94 kcal/mol
-----------------------------------------------------------------------
Total correction                          0.26626045 Eh     167.08 kcal/mol

--------
ENTHALPY
--------

The enthalpy is H = U + kB*T
                kB is Boltzmann's constant
Total free energy                 ...   -461.87045316 Eh
Thermal Enthalpy correction       ...      0.00094421 Eh       0.59 kcal/mol
-----------------------------------------------------------------------
Total Enthalpy                    ...   -461.86950895 Eh

Note: Only C1 symmetry has been detected, increase convergence thresholds
      if your molecule has a higher symmetry. Symmetry factor of 1.0 is
      used for the rotational entropy correction.

Note: Rotational entropy computed according to Herzberg
Infrared and Raman Spectra, Chapter V,1, Van Nostrand Reinhold, 1945
Point Group:  C1, Symmetry Number:   1
Rotational constants in cm-1:     0.089484     0.018393     0.017768

Vibrational entropy computed according to the QRRHO of S. Grimme
Chem.Eur.J. 2012 18 9955

-------
ENTROPY
-------

The entropy contributions are T*S = T*(S(el)+S(vib)+S(rot)+S(trans))
     S(el)   - electronic entropy
     S(vib)  - vibrational entropy
     S(rot)  - rotational entropy
     S(trans)- translational entropy

                             ****ORCA TERMINATED NORMALLY****
TOTAL RUN TIME: 0 days 1 hours 6 minutes 26 seconds 99 msec
