                         Program Version 5.0.4 -  RELEASE  -
|  1> # ORCA 5.0.4 - /users/bwb16179/postgrad/2024_03/DFT_Crest_Conformers/Opt/prot/4_prot_aq_8.inp # write input file
|  2> # Basic Mode
|  3> #
|  4> ! Opt Freq wB97X Def2-SVP D4 SlowConv TightSCF Defgrid2 Def2/J RIJCOSX CPCM(Water)
|  5>
|  6>
|  7>
|  8> %maxcore 4500
|  9>
| 10> %geom
| 11> Maxiter 150
| 12> END
| 13>
| 14> * xyzfile 1 1 4_prot_aq_8.xyz
| 15>
| 16>                          ****END OF INPUT****
 Total Charge           Charge          ....    1
 Multiplicity           Mult            ....    1
 Number of Electrons    NEL             ....   84
Dispersion correction           -0.004065897
FINAL SINGLE POINT ENERGY      -462.131628154966
Dispersion correction            ... Starting D4
Dispersion correction           -0.004048339
FINAL SINGLE POINT ENERGY      -462.135063483097
Dispersion correction            ... Starting D4
Dispersion correction           -0.004045386
FINAL SINGLE POINT ENERGY      -462.135285232528
Dispersion correction            ... Starting D4
FINAL SINGLE POINT ENERGY      -462.135390273953
FINAL SINGLE POINT ENERGY      -462.135410731181
FINAL SINGLE POINT ENERGY      -462.135419222582
FINAL SINGLE POINT ENERGY      -462.135422645759
FINAL SINGLE POINT ENERGY      -462.135426682316
Dispersion correction           -0.004042345
FINAL SINGLE POINT ENERGY      -462.135432286854
Dispersion correction            ... Starting D4
Dispersion correction           -0.004041978
FINAL SINGLE POINT ENERGY      -462.135435515912
Dispersion correction            ... Starting D4
                    ***********************HURRAY********************

CARTESIAN COORDINATES (ANGSTROEM)
---------------------------------
  N     -1.081722    0.151157    0.334775
  C     -0.002928   -0.080865   -0.410995
  N      1.076676   -0.043241    0.367768
  H     -0.003826   -0.270906   -1.483130
  C      0.675897    0.223556    1.658378
  C     -0.679669    0.341133    1.638369
  C     -2.491513    0.124979   -0.116468
  C      2.487819   -0.170135   -0.062737
  C     -2.617514    0.662676   -1.533027
  H     -3.010249    0.807878    0.573093
  C     -3.057068   -1.280916    0.040138
  C      3.076722    1.212867   -0.308534
  C      2.610945   -1.090529   -1.266008
  H      2.993153   -0.636203    0.796564
  H      1.389942    0.310522    2.475349
  H     -1.393308    0.543748    2.434913
  H     -2.149467    1.653362   -1.629981
  H     -3.683968    0.757565   -1.781245
  H     -2.165929   -0.022437   -2.267525
  H     -4.121786   -1.280603   -0.234717
  H     -2.968021   -1.632987    1.078660
  H     -2.526464   -1.984827   -0.620769
  H      4.145186    1.117322   -0.550507
  H      2.980142    1.851789    0.581783
  H      2.569763    1.703659   -1.154323
  H      3.677263   -1.263343   -1.468571
  H      2.170423   -0.639755   -2.169320
  H      2.133266   -2.063779   -1.079339

 Multiplicity           Mult            ....    1
 Number of Electrons    NEL             ....   84
 Basis Dimension        Dim             ....  239

ORBITAL ENERGIES
----------------

  NO   OCC          E(Eh)            E(eV)
   0   2.0000     -14.509985      -394.8368
   1   2.0000     -14.509733      -394.8299
   2   2.0000     -10.383993      -282.5628
   3   2.0000     -10.337603      -281.3005
   4   2.0000     -10.337485      -281.2973
   5   2.0000     -10.334321      -281.2112
   6   2.0000     -10.333728      -281.1950
   7   2.0000     -10.276731      -279.6441
   8   2.0000     -10.276367      -279.6342
   9   2.0000     -10.274346      -279.5792
  10   2.0000     -10.274334      -279.5788
  11   2.0000      -1.215629       -33.0790
  12   2.0000      -1.095292       -29.8044
  13   2.0000      -0.966262       -26.2933
  14   2.0000      -0.917262       -24.9600
  15   2.0000      -0.915086       -24.9008
  16   2.0000      -0.825094       -22.4520
  17   2.0000      -0.822895       -22.3921
  18   2.0000      -0.805876       -21.9290
  19   2.0000      -0.773206       -21.0400
  20   2.0000      -0.731702       -19.9106
  21   2.0000      -0.724822       -19.7234
  22   2.0000      -0.652486       -17.7550
  23   2.0000      -0.634084       -17.2543
  24   2.0000      -0.605390       -16.4735
  25   2.0000      -0.598217       -16.2783
  26   2.0000      -0.585350       -15.9282
  27   2.0000      -0.581437       -15.8217
  28   2.0000      -0.564835       -15.3699
  29   2.0000      -0.562105       -15.2957
  30   2.0000      -0.544218       -14.8089
  31   2.0000      -0.518839       -14.1183
  32   2.0000      -0.501228       -13.6391
  33   2.0000      -0.497909       -13.5488
  34   2.0000      -0.496920       -13.5219
  35   2.0000      -0.492311       -13.3965
  36   2.0000      -0.475269       -12.9327
  37   2.0000      -0.464263       -12.6332
  38   2.0000      -0.460342       -12.5265
  39   2.0000      -0.457789       -12.4571
  40   2.0000      -0.412903       -11.2357
  41   2.0000      -0.375352       -10.2138
  42   0.0000       0.059991         1.6324
  43   0.0000       0.093361         2.5405
  44   0.0000       0.137108         3.7309
  45   0.0000       0.149249         4.0613
  46   0.0000       0.157428         4.2838

MULLIKEN ATOMIC CHARGES
-----------------------
   0 N :   -0.197716
   1 C :    0.218764
   2 N :   -0.198376
   3 H :    0.130247
   4 C :    0.065171
   5 C :    0.066251
   6 C :   -0.039382
   7 C :   -0.037607
   8 C :   -0.042008
   9 H :    0.077484
  10 C :    0.000677
  11 C :   -0.000095
  12 C :   -0.043724
  13 H :    0.077617
  14 H :    0.105252
  15 H :    0.105142
  16 H :    0.063987
  17 H :    0.067818
  18 H :    0.057661
  19 H :    0.062525
  20 H :    0.054314
  21 H :    0.048958
  22 H :    0.062661
  23 H :    0.053923
  24 H :    0.049098
  25 H :    0.068564
  26 H :    0.058596
  27 H :    0.064199
Sum of atomic charges:    1.0000000

LOEWDIN ATOMIC CHARGES
----------------------
   0 N :    0.097897
   1 C :    0.121746
   2 N :    0.097956
   3 H :    0.065640
   4 C :    0.019019
   5 C :    0.019926
   6 C :    0.043811
   7 C :    0.043963
   8 C :   -0.056794
   9 H :    0.049033
  10 C :   -0.053467
  11 C :   -0.053265
  12 C :   -0.057011
  13 H :    0.049021
  14 H :    0.062494
  15 H :    0.062634
  16 H :    0.039849
  17 H :    0.048785
  18 H :    0.037171
  19 H :    0.044683
  20 H :    0.036856
  21 H :    0.035933
  22 H :    0.044796
  23 H :    0.036584
  24 H :    0.036084
  25 H :    0.049395
  26 H :    0.037381
  27 H :    0.039881

  Mayer bond orders larger than 0.100000
B(  0-N ,  1-C ) :   1.3502 B(  0-N ,  5-C ) :   1.1747 B(  0-N ,  6-C ) :   0.8448
B(  1-C ,  2-N ) :   1.3526 B(  1-C ,  3-H ) :   0.9672 B(  2-N ,  4-C ) :   1.1739
B(  2-N ,  7-C ) :   0.8449 B(  4-C ,  5-C ) :   1.5910 B(  4-C , 14-H ) :   0.9866
B(  5-C , 15-H ) :   0.9868 B(  6-C ,  8-C ) :   1.0752 B(  6-C ,  9-H ) :   0.9408
B(  6-C , 10-C ) :   1.0677 B(  7-C , 11-C ) :   1.0673 B(  7-C , 12-C ) :   1.0768
B(  7-C , 13-H ) :   0.9409 B(  8-C , 16-H ) :   0.9680 B(  8-C , 17-H ) :   0.9648
B(  8-C , 18-H ) :   0.9609 B( 10-C , 19-H ) :   0.9715 B( 10-C , 20-H ) :   0.9658
B( 10-C , 21-H ) :   0.9626 B( 11-C , 22-H ) :   0.9714 B( 11-C , 23-H ) :   0.9657
B( 11-C , 24-H ) :   0.9628 B( 12-C , 25-H ) :   0.9642 B( 12-C , 26-H ) :   0.9602
B( 12-C , 27-H ) :   0.9675

Dispersion correction           -0.004041972
FINAL SINGLE POINT ENERGY      -462.135436086077

DIPOLE MOMENT
-------------
                                X             Y             Z
Electronic contribution:     -0.03333       0.98741       6.18785
Nuclear contribution   :      0.03406      -0.95926      -5.98456
                        -----------------------------------------
Total Dipole Moment    :      0.00073       0.02815       0.20329
                        -----------------------------------------
Magnitude (a.u.)       :      0.20523
Magnitude (Debye)      :      0.52165

Dispersion correction in the Hessian             ... Starting D4

VIBRATIONAL FREQUENCIES
-----------------------

Scaling factor for frequencies =  1.000000000  (already applied!)

   0:         0.00 cm**-1
   1:         0.00 cm**-1
   2:         0.00 cm**-1
   3:         0.00 cm**-1
   4:         0.00 cm**-1
   5:         0.00 cm**-1
   6:        28.55 cm**-1
   7:        35.65 cm**-1
   8:        97.98 cm**-1
   9:       139.95 cm**-1
  10:       163.68 cm**-1
  11:       235.48 cm**-1
  12:       246.43 cm**-1
  13:       286.71 cm**-1
  14:       287.30 cm**-1
  15:       303.13 cm**-1
  16:       321.79 cm**-1
  17:       342.58 cm**-1
  18:       414.70 cm**-1
  19:       442.65 cm**-1
  20:       475.39 cm**-1
  21:       511.80 cm**-1
  22:       604.42 cm**-1
  23:       675.43 cm**-1
  24:       681.67 cm**-1
  25:       696.79 cm**-1
  26:       771.50 cm**-1
  27:       890.22 cm**-1
  28:       912.49 cm**-1
  29:       917.29 cm**-1
  30:       918.00 cm**-1
  31:       941.75 cm**-1
  32:       943.76 cm**-1
  33:       964.25 cm**-1
  34:       968.36 cm**-1
  35:      1026.09 cm**-1
  36:      1037.13 cm**-1
  37:      1105.02 cm**-1
  38:      1126.32 cm**-1
  39:      1136.97 cm**-1
  40:      1168.03 cm**-1
  41:      1172.29 cm**-1
  42:      1174.85 cm**-1
  43:      1191.98 cm**-1
  44:      1217.44 cm**-1
  45:      1269.94 cm**-1
  46:      1338.33 cm**-1
  47:      1350.52 cm**-1
  48:      1353.54 cm**-1
  49:      1367.71 cm**-1
  50:      1392.34 cm**-1
  51:      1403.53 cm**-1
  52:      1404.84 cm**-1
  53:      1407.96 cm**-1
  54:      1410.83 cm**-1
  55:      1445.90 cm**-1
  56:      1446.51 cm**-1
  57:      1450.59 cm**-1
  58:      1455.54 cm**-1
  59:      1461.50 cm**-1
  60:      1464.11 cm**-1
  61:      1471.28 cm**-1
  62:      1476.36 cm**-1
  63:      1485.15 cm**-1
  64:      1509.23 cm**-1
  65:      1649.27 cm**-1
  66:      1650.82 cm**-1
  67:      3069.67 cm**-1
  68:      3070.33 cm**-1
  69:      3074.00 cm**-1
  70:      3075.78 cm**-1
  71:      3132.62 cm**-1
  72:      3133.04 cm**-1
  73:      3175.01 cm**-1
  74:      3175.26 cm**-1
  75:      3177.80 cm**-1
  76:      3178.86 cm**-1
  77:      3186.56 cm**-1
  78:      3187.57 cm**-1
  79:      3190.04 cm**-1
  80:      3191.10 cm**-1
  81:      3298.91 cm**-1
  82:      3314.04 cm**-1
  83:      3318.05 cm**-1

IR SPECTRUM
-----------

 Mode   freq       eps      Int      T**2         TX        TY        TZ
       cm**-1   L/(mol*cm) km/mol    a.u.
----------------------------------------------------------------------------
  6:     28.55   0.000043    0.22  0.000466  ( 0.003627 -0.020609 -0.005272)
  7:     35.65   0.000034    0.17  0.000295  ( 0.000735 -0.009818  0.014062)
  8:     97.98   0.000048    0.24  0.000154  (-0.006889 -0.010231  0.001279)
  9:    139.95   0.000005    0.03  0.000012  ( 0.000625 -0.000882 -0.003251)
 10:    163.68   0.000000    0.00  0.000000  ( 0.000047 -0.000269 -0.000098)
 11:    235.48   0.000015    0.07  0.000019  ( 0.004378  0.000045 -0.000546)
 12:    246.43   0.000010    0.05  0.000012  (-0.000422 -0.000988 -0.003350)
 13:    286.71   0.000018    0.09  0.000019  ( 0.000181 -0.002995  0.003224)
 14:    287.30   0.000023    0.12  0.000025  ( 0.001596 -0.004313 -0.001961)
 15:    303.13   0.000068    0.35  0.000070  (-0.007848 -0.002896 -0.000718)
 16:    321.79   0.000013    0.06  0.000012  ( 0.000426 -0.000388  0.003442)
 17:    342.58   0.000045    0.23  0.000041  (-0.005772  0.002788  0.000530)
 18:    414.70   0.000062    0.31  0.000047  ( 0.003101 -0.006040  0.000778)
 19:    442.65   0.000077    0.39  0.000054  (-0.000183  0.001294  0.007265)
 20:    475.39   0.000003    0.02  0.000002  (-0.000876  0.000307  0.001181)
 21:    511.80   0.000281    1.42  0.000171  (-0.011404  0.006376 -0.000775)
 22:    604.42   0.000421    2.13  0.000217  ( 0.000292 -0.001799 -0.014626)
 23:    675.43   0.013538   68.41  0.006255  (-0.000646  0.077943 -0.013389)
 24:    681.67   0.000107    0.54  0.000049  (-0.000749  0.003083 -0.006245)
 25:    696.79   0.000614    3.10  0.000275  (-0.011884 -0.011498  0.001297)
 26:    771.50   0.009431   47.66  0.003815  ( 0.008569  0.060272 -0.010426)
 27:    890.22   0.005302   26.79  0.001858  ( 0.008902  0.041504 -0.007531)
 28:    912.49   0.000187    0.95  0.000064  ( 0.000546 -0.000543 -0.007968)
 29:    917.29   0.000030    0.15  0.000010  (-0.000723 -0.002488 -0.001843)
 30:    918.00   0.000493    2.49  0.000168  ( 0.011148 -0.006582  0.000231)
 31:    941.75   0.000783    3.96  0.000259  (-0.001193 -0.015361 -0.004686)
 32:    943.76   0.000795    4.02  0.000263  (-0.000447 -0.013432  0.009068)
 33:    964.25   0.000206    1.04  0.000067  (-0.000808  0.006224  0.005210)
 34:    968.36   0.000214    1.08  0.000069  ( 0.000625 -0.006274  0.005409)
 35:   1026.09   0.003440   17.38  0.001046  ( 0.032199 -0.002984  0.000750)
 36:   1037.13   0.000105    0.53  0.000032  ( 0.001322 -0.001251 -0.005320)
 37:   1105.02   0.003761   19.00  0.001062  (-0.002075 -0.005619 -0.032034)
 38:   1126.32   0.000524    2.65  0.000145  (-0.011398 -0.003196  0.002276)
 39:   1136.97   0.000355    1.79  0.000097  (-0.000363 -0.001703 -0.009718)
 40:   1168.03   0.015837   80.03  0.004231  (-0.064861  0.004881 -0.000574)
 41:   1172.29   0.000342    1.73  0.000091  (-0.005043  0.001193  0.008016)
 42:   1174.85   0.006639   33.55  0.001763  ( 0.026699 -0.032077  0.004645)
 43:   1191.98   0.001021    5.16  0.000267  (-0.003809  0.001286  0.015844)
 44:   1217.44   0.032993  166.73  0.008457  ( 0.091955 -0.000476  0.000962)
 45:   1269.94   0.007882   39.83  0.001937  (-0.043834 -0.003936  0.000001)
 46:   1338.33   0.000078    0.39  0.000018  ( 0.001186  0.000645  0.004036)
 47:   1350.52   0.000281    1.42  0.000065  ( 0.007671 -0.002206 -0.001147)
 48:   1353.54   0.000361    1.82  0.000083  (-0.008579 -0.001351 -0.002781)
 49:   1367.71   0.010241   51.76  0.002337  (-0.047762 -0.007294  0.001501)
 50:   1392.34   0.002173   10.98  0.000487  (-0.000232  0.002553  0.021922)
 51:   1403.53   0.007514   37.97  0.001671  ( 0.009881  0.039645 -0.001158)
 52:   1404.84   0.000068    0.34  0.000015  (-0.003198  0.000994 -0.001947)
 53:   1407.96   0.004427   22.37  0.000981  (-0.017498 -0.000448  0.025976)
 54:   1410.83   0.006838   34.56  0.001513  ( 0.009604  0.005613  0.037266)
 55:   1445.90   0.000037    0.19  0.000008  ( 0.002162 -0.001424  0.001096)
 56:   1446.51   0.000004    0.02  0.000001  ( 0.000670 -0.000545  0.000151)
 57:   1450.59   0.000225    1.14  0.000049  (-0.000753  0.006920 -0.000225)
 58:   1455.54   0.002973   15.03  0.000637  ( 0.000086 -0.002829 -0.025089)
 59:   1461.50   0.005933   29.98  0.001267  (-0.024677  0.022925 -0.011500)
 60:   1464.11   0.003926   19.84  0.000837  (-0.011176  0.009687  0.024861)
 61:   1471.28   0.001003    5.07  0.000213  ( 0.011074  0.008487  0.004255)
 62:   1476.36   0.000054    0.27  0.000011  (-0.000421 -0.001176  0.003133)
 63:   1485.15   0.000599    3.03  0.000126  ( 0.010446  0.004041  0.000610)
 64:   1509.23   0.000316    1.60  0.000065  ( 0.000449  0.001658  0.007905)
 65:   1649.27   0.027360  138.26  0.005177  ( 0.071793 -0.000012 -0.004753)
 66:   1650.82   0.004029   20.36  0.000762  (-0.020971 -0.003319 -0.017633)
 67:   3069.67   0.002509   12.68  0.000255  ( 0.004870  0.014833 -0.003357)
 68:   3070.33   0.002405   12.15  0.000244  (-0.005395 -0.014672  0.000155)
 69:   3074.00   0.001598    8.07  0.000162  ( 0.001092  0.004638  0.011811)
 70:   3075.78   0.001794    9.07  0.000182  ( 0.001258  0.002036 -0.013278)
 71:   3132.62   0.000943    4.76  0.000094  ( 0.005898 -0.006138 -0.004631)
 72:   3133.04   0.000985    4.98  0.000098  (-0.006005  0.004471 -0.006484)
 73:   3175.01   0.001575    7.96  0.000155  (-0.005202 -0.000603  0.011288)
 74:   3175.26   0.000939    4.75  0.000092  (-0.000053 -0.009603 -0.000292)
 75:   3177.80   0.005128   25.91  0.000504  (-0.009275  0.007495 -0.019009)
 76:   3178.86   0.004346   21.96  0.000427  (-0.008433  0.014465  0.012094)
 77:   3186.56   0.001998   10.10  0.000196  ( 0.009766 -0.008843 -0.004697)
 78:   3187.57   0.001902    9.61  0.000186  ( 0.009211 -0.007183  0.007055)
 79:   3190.04   0.002368   11.97  0.000232  (-0.014783 -0.003185  0.001724)
 80:   3191.10   0.002252   11.38  0.000220  (-0.014203 -0.004058 -0.001426)
 81:   3298.91   0.005402   27.30  0.000511  ( 0.022523 -0.001581  0.001131)
 82:   3314.04   0.014329   72.41  0.001349  (-0.000775  0.006565  0.036133)
 83:   3318.05   0.000016    0.08  0.000001  (-0.000976  0.000126 -0.000705)

--------------------------
THERMOCHEMISTRY AT 298.15K
--------------------------

Temperature         ... 298.15 K
Pressure            ... 1.00 atm
Total Mass          ... 153.25 AMU

Throughout the following assumptions are being made:
  (1) The electronic state is orbitally nondegenerate
  (2) There are no thermally accessible electronically excited states
  (3) Hindered rotations indicated by low frequency modes are not
      treated as such but are treated as vibrations and this may
      cause some error
  (4) All equations used are the standard statistical mechanics
      equations for an ideal gas
  (5) All vibrations are strictly harmonic

freq.      28.55  E(vib)   ...       0.55
freq.      35.65  E(vib)   ...       0.54
freq.      97.98  E(vib)   ...       0.46
freq.     139.95  E(vib)   ...       0.41
freq.     163.68  E(vib)   ...       0.39
freq.     235.48  E(vib)   ...       0.32
freq.     246.43  E(vib)   ...       0.31
freq.     286.71  E(vib)   ...       0.27
freq.     287.30  E(vib)   ...       0.27
freq.     303.13  E(vib)   ...       0.26
freq.     321.79  E(vib)   ...       0.25
freq.     342.58  E(vib)   ...       0.23
freq.     414.70  E(vib)   ...       0.19
freq.     442.65  E(vib)   ...       0.17
freq.     475.39  E(vib)   ...       0.15
freq.     511.80  E(vib)   ...       0.14
freq.     604.42  E(vib)   ...       0.10
freq.     675.43  E(vib)   ...       0.08
freq.     681.67  E(vib)   ...       0.08
freq.     696.79  E(vib)   ...       0.07
freq.     771.50  E(vib)   ...       0.05
freq.     890.22  E(vib)   ...       0.04
freq.     912.49  E(vib)   ...       0.03
freq.     917.29  E(vib)   ...       0.03
freq.     918.00  E(vib)   ...       0.03
freq.     941.75  E(vib)   ...       0.03
freq.     943.76  E(vib)   ...       0.03
freq.     964.25  E(vib)   ...       0.03
freq.     968.36  E(vib)   ...       0.03
freq.    1026.09  E(vib)   ...       0.02
freq.    1037.13  E(vib)   ...       0.02
freq.    1105.02  E(vib)   ...       0.02
freq.    1126.32  E(vib)   ...       0.01
freq.    1136.97  E(vib)   ...       0.01
freq.    1168.03  E(vib)   ...       0.01
freq.    1172.29  E(vib)   ...       0.01
freq.    1174.85  E(vib)   ...       0.01
freq.    1191.98  E(vib)   ...       0.01
freq.    1217.44  E(vib)   ...       0.01
freq.    1269.94  E(vib)   ...       0.01
freq.    1338.33  E(vib)   ...       0.01
freq.    1350.52  E(vib)   ...       0.01
freq.    1353.54  E(vib)   ...       0.01
freq.    1367.71  E(vib)   ...       0.01
freq.    1392.34  E(vib)   ...       0.00
freq.    1403.53  E(vib)   ...       0.00
freq.    1404.84  E(vib)   ...       0.00
freq.    1407.96  E(vib)   ...       0.00
freq.    1410.83  E(vib)   ...       0.00
freq.    1445.90  E(vib)   ...       0.00
freq.    1446.51  E(vib)   ...       0.00
freq.    1450.59  E(vib)   ...       0.00
freq.    1455.54  E(vib)   ...       0.00
freq.    1461.50  E(vib)   ...       0.00
freq.    1464.11  E(vib)   ...       0.00
freq.    1471.28  E(vib)   ...       0.00
freq.    1476.36  E(vib)   ...       0.00
freq.    1485.15  E(vib)   ...       0.00
freq.    1509.23  E(vib)   ...       0.00
freq.    1649.27  E(vib)   ...       0.00
freq.    1650.82  E(vib)   ...       0.00
freq.    3069.67  E(vib)   ...       0.00
freq.    3070.33  E(vib)   ...       0.00
freq.    3074.00  E(vib)   ...       0.00
freq.    3075.78  E(vib)   ...       0.00
freq.    3132.62  E(vib)   ...       0.00
freq.    3133.04  E(vib)   ...       0.00
freq.    3175.01  E(vib)   ...       0.00
freq.    3175.26  E(vib)   ...       0.00
freq.    3177.80  E(vib)   ...       0.00
freq.    3178.86  E(vib)   ...       0.00
freq.    3186.56  E(vib)   ...       0.00
freq.    3187.57  E(vib)   ...       0.00
freq.    3190.04  E(vib)   ...       0.00
freq.    3191.10  E(vib)   ...       0.00
freq.    3298.91  E(vib)   ...       0.00
freq.    3314.04  E(vib)   ...       0.00
freq.    3318.05  E(vib)   ...       0.00

------------
INNER ENERGY
------------

The inner energy is: U= E(el) + E(ZPE) + E(vib) + E(rot) + E(trans)
    E(el)   - is the total energy from the electronic structure calculation
              = E(kin-el) + E(nuc-el) + E(el-el) + E(nuc-nuc)
    E(ZPE)  - the the zero temperature vibrational energy from the frequency calculation
    E(vib)  - the the finite temperature correction to E(ZPE) due to population
              of excited vibrational states
    E(rot)  - is the rotational thermal energy
    E(trans)- is the translational thermal energy

Summary of contributions to the inner energy U:
Electronic energy                ...   -462.13543609 Eh
Zero point energy                ...      0.25558809 Eh     160.38 kcal/mol
Thermal vibrational correction   ...      0.00919731 Eh       5.77 kcal/mol
Thermal rotational correction    ...      0.00141627 Eh       0.89 kcal/mol
Thermal translational correction ...      0.00141627 Eh       0.89 kcal/mol
-----------------------------------------------------------------------
Total thermal energy                   -461.86781814 Eh

Summary of corrections to the electronic energy:
(perhaps to be used in another calculation)
Total thermal correction                  0.01202985 Eh       7.55 kcal/mol
Non-thermal (ZPE) correction              0.25558809 Eh     160.38 kcal/mol
-----------------------------------------------------------------------
Total correction                          0.26761794 Eh     167.93 kcal/mol

--------
ENTHALPY
--------

The enthalpy is H = U + kB*T
                kB is Boltzmann's constant
Total free energy                 ...   -461.86781814 Eh
Thermal Enthalpy correction       ...      0.00094421 Eh       0.59 kcal/mol
-----------------------------------------------------------------------
Total Enthalpy                    ...   -461.86687394 Eh

Note: Only C1 symmetry has been detected, increase convergence thresholds
      if your molecule has a higher symmetry. Symmetry factor of 1.0 is
      used for the rotational entropy correction.

Note: Rotational entropy computed according to Herzberg
Infrared and Raman Spectra, Chapter V,1, Van Nostrand Reinhold, 1945
Point Group:  C1, Symmetry Number:   1
Rotational constants in cm-1:     0.069356     0.021053     0.019200

Vibrational entropy computed according to the QRRHO of S. Grimme
Chem.Eur.J. 2012 18 9955

-------
ENTROPY
-------

The entropy contributions are T*S = T*(S(el)+S(vib)+S(rot)+S(trans))
     S(el)   - electronic entropy
     S(vib)  - vibrational entropy
     S(rot)  - rotational entropy

                             ****ORCA TERMINATED NORMALLY****
TOTAL RUN TIME: 0 days 1 hours 30 minutes 43 seconds 510 msec
