                         Program Version 5.0.4 -  RELEASE  -
|  1> # ORCA 5.0.4 - /users/bwb16179/postgrad/2024_03/DFT_Crest_Conformers/Opt/prot/4_prot_aq_3.inp # write input file
|  2> # Basic Mode
|  3> #
|  4> ! Opt Freq wB97X Def2-SVP D4 SlowConv TightSCF Defgrid2 Def2/J RIJCOSX CPCM(Water)
|  5>
|  6>
|  7>
|  8> %maxcore 4500
|  9>
| 10> %geom
| 11> Maxiter 150
| 12> END
| 13>
| 14> * xyzfile 1 1 4_prot_aq_3.xyz
| 15>
| 16>                          ****END OF INPUT****
 Total Charge           Charge          ....    1
 Multiplicity           Mult            ....    1
 Number of Electrons    NEL             ....   84
Dispersion correction           -0.004021244
FINAL SINGLE POINT ENERGY      -462.132350522048
Dispersion correction            ... Starting D4
Dispersion correction           -0.004006631
FINAL SINGLE POINT ENERGY      -462.135834358927
Dispersion correction            ... Starting D4
Dispersion correction           -0.004004840
FINAL SINGLE POINT ENERGY      -462.136042692911
Dispersion correction            ... Starting D4
FINAL SINGLE POINT ENERGY      -462.136157148718
FINAL SINGLE POINT ENERGY      -462.136191879191
FINAL SINGLE POINT ENERGY      -462.136213727284
FINAL SINGLE POINT ENERGY      -462.136226331127
FINAL SINGLE POINT ENERGY      -462.136234554852
Dispersion correction           -0.004006397
FINAL SINGLE POINT ENERGY      -462.136240039681
Dispersion correction            ... Starting D4
Dispersion correction           -0.004006319
FINAL SINGLE POINT ENERGY      -462.136242608022
Dispersion correction            ... Starting D4
                    ***********************HURRAY********************

CARTESIAN COORDINATES (ANGSTROEM)
---------------------------------
  N     -1.019705   -0.021055   -0.047134
  C      0.154006    0.111333    0.564252
  N      1.127843   -0.154907   -0.304114
  H      0.287421    0.392414    1.609205
  C      0.555844   -0.465032   -1.517311
  C     -0.793897   -0.383256   -1.357599
  C     -2.338785    0.186996    0.588469
  C      2.580698   -0.084616   -0.030248
  C     -3.057498    1.352619   -0.075764
  H     -2.106657    0.449453    1.631690
  C     -3.139667   -1.106889    0.562516
  C      2.936573   -0.934125    1.181127
  C      3.016405    1.368163    0.103564
  H      3.044813   -0.522743   -0.926087
  H      1.158387   -0.719314   -2.387288
  H     -1.602637   -0.555552   -2.065316
  H     -3.999226    1.548287    0.457139
  H     -3.301391    1.121721   -1.124864
  H     -2.443989    2.265013   -0.045898
  H     -3.380520   -1.401880   -0.470898
  H     -4.085994   -0.958022    1.102139
  H     -2.587259   -1.925476    1.046718
  H      4.029154   -0.947830    1.302485
  H      2.587088   -1.969462    1.055904
  H      2.500800   -0.519079    2.103675
  H      2.559643    1.833562    0.991697
  H      2.734117    1.949785   -0.786456
  H      4.109273    1.413146    0.216168

 Multiplicity           Mult            ....    1
 Number of Electrons    NEL             ....   84
 Basis Dimension        Dim             ....  239

ORBITAL ENERGIES
----------------

  NO   OCC          E(Eh)            E(eV)
   0   2.0000     -14.510271      -394.8445
   1   2.0000     -14.509106      -394.8128
   2   2.0000     -10.383512      -282.5497
   3   2.0000     -10.337632      -281.3013
   4   2.0000     -10.337417      -281.2954
   5   2.0000     -10.335030      -281.2305
   6   2.0000     -10.333811      -281.1973
   7   2.0000     -10.275338      -279.6062
   8   2.0000     -10.274583      -279.5856
   9   2.0000     -10.274545      -279.5846
  10   2.0000     -10.274505      -279.5835
  11   2.0000      -1.215877       -33.0857
  12   2.0000      -1.095594       -29.8126
  13   2.0000      -0.965679       -26.2775
  14   2.0000      -0.920446       -25.0466
  15   2.0000      -0.911857       -24.8129
  16   2.0000      -0.822351       -22.3773
  17   2.0000      -0.821433       -22.3523
  18   2.0000      -0.803976       -21.8773
  19   2.0000      -0.780582       -21.2407
  20   2.0000      -0.731256       -19.8985
  21   2.0000      -0.720161       -19.5966
  22   2.0000      -0.657580       -17.8937
  23   2.0000      -0.628072       -17.0907
  24   2.0000      -0.610157       -16.6032
  25   2.0000      -0.594755       -16.1841
  26   2.0000      -0.586067       -15.9477
  27   2.0000      -0.574440       -15.6313
  28   2.0000      -0.562410       -15.3040
  29   2.0000      -0.559256       -15.2181
  30   2.0000      -0.554890       -15.0993
  31   2.0000      -0.518730       -14.1154
  32   2.0000      -0.503295       -13.6954
  33   2.0000      -0.498959       -13.5774
  34   2.0000      -0.496745       -13.5171
  35   2.0000      -0.490606       -13.3501
  36   2.0000      -0.472485       -12.8570
  37   2.0000      -0.463474       -12.6118
  38   2.0000      -0.458515       -12.4768
  39   2.0000      -0.455912       -12.4060
  40   2.0000      -0.415102       -11.2955
  41   2.0000      -0.374836       -10.1998
  42   0.0000       0.060856         1.6560
  43   0.0000       0.095106         2.5880
  44   0.0000       0.139212         3.7882
  45   0.0000       0.145847         3.9687
  46   0.0000       0.158577         4.3151

MULLIKEN ATOMIC CHARGES
-----------------------
   0 N :   -0.188029
   1 C :    0.214902
   2 N :   -0.197122
   3 H :    0.142163
   4 C :    0.067206
   5 C :    0.053313
   6 C :   -0.051318
   7 C :   -0.044519
   8 C :   -0.011133
   9 H :    0.075848
  10 C :   -0.011747
  11 C :   -0.025515
  12 C :   -0.005247
  13 H :    0.075746
  14 H :    0.105525
  15 H :    0.108950
  16 H :    0.063648
  17 H :    0.050816
  18 H :    0.056965
  19 H :    0.050959
  20 H :    0.063549
  21 H :    0.057274
  22 H :    0.064791
  23 H :    0.060648
  24 H :    0.053358
  25 H :    0.049764
  26 H :    0.056152
  27 H :    0.063055
Sum of atomic charges:    1.0000000

LOEWDIN ATOMIC CHARGES
----------------------
   0 N :    0.102297
   1 C :    0.124485
   2 N :    0.097045
   3 H :    0.069852
   4 C :    0.021807
   5 C :    0.014616
   6 C :    0.043178
   7 C :    0.043429
   8 C :   -0.054581
   9 H :    0.049087
  10 C :   -0.054526
  11 C :   -0.055409
  12 C :   -0.054332
  13 H :    0.048757
  14 H :    0.062495
  15 H :    0.061229
  16 H :    0.045591
  17 H :    0.036106
  18 H :    0.038220
  19 H :    0.036132
  20 H :    0.045638
  21 H :    0.038286
  22 H :    0.046545
  23 H :    0.039106
  24 H :    0.036278
  25 H :    0.035691
  26 H :    0.037941
  27 H :    0.045036

  Mayer bond orders larger than 0.100000
B(  0-N ,  1-C ) :   1.3627 B(  0-N ,  5-C ) :   1.1690 B(  0-N ,  6-C ) :   0.8521
B(  1-C ,  2-N ) :   1.3433 B(  1-C ,  3-H ) :   0.9664 B(  2-N ,  4-C ) :   1.1773
B(  2-N ,  7-C ) :   0.8407 B(  4-C ,  5-C ) :   1.5993 B(  4-C , 14-H ) :   0.9857
B(  5-C , 15-H ) :   0.9831 B(  6-C ,  8-C ) :   1.0700 B(  6-C ,  9-H ) :   0.9392
B(  6-C , 10-C ) :   1.0698 B(  7-C , 11-C ) :   1.0711 B(  7-C , 12-C ) :   1.0712
B(  7-C , 13-H ) :   0.9404 B(  8-C , 16-H ) :   0.9698 B(  8-C , 17-H ) :   0.9627
B(  8-C , 18-H ) :   0.9673 B( 10-C , 19-H ) :   0.9625 B( 10-C , 20-H ) :   0.9697
B( 10-C , 21-H ) :   0.9673 B( 11-C , 22-H ) :   0.9685 B( 11-C , 23-H ) :   0.9683
B( 11-C , 24-H ) :   0.9627 B( 12-C , 25-H ) :   0.9624 B( 12-C , 26-H ) :   0.9667
B( 12-C , 27-H ) :   0.9707

Dispersion correction           -0.004006328
FINAL SINGLE POINT ENERGY      -462.136243466755

DIPOLE MOMENT
-------------
                                X             Y             Z
Electronic contribution:      0.59785      -1.43170      -3.50279
Nuclear contribution   :     -0.46326       1.41068       3.57785
                        -----------------------------------------
Total Dipole Moment    :      0.13459      -0.02102       0.07506
                        -----------------------------------------
Magnitude (a.u.)       :      0.15554
Magnitude (Debye)      :      0.39534

Dispersion correction in the Hessian             ... Starting D4

VIBRATIONAL FREQUENCIES
-----------------------

Scaling factor for frequencies =  1.000000000  (already applied!)

   0:         0.00 cm**-1
   1:         0.00 cm**-1
   2:         0.00 cm**-1
   3:         0.00 cm**-1
   4:         0.00 cm**-1
   5:         0.00 cm**-1
   6:        40.60 cm**-1
   7:        50.77 cm**-1
   8:       107.42 cm**-1
   9:       148.04 cm**-1
  10:       160.77 cm**-1
  11:       236.65 cm**-1
  12:       240.46 cm**-1
  13:       251.10 cm**-1
  14:       271.34 cm**-1
  15:       279.43 cm**-1
  16:       334.55 cm**-1
  17:       345.02 cm**-1
  18:       396.51 cm**-1
  19:       449.73 cm**-1
  20:       494.96 cm**-1
  21:       498.88 cm**-1
  22:       634.03 cm**-1
  23:       680.89 cm**-1
  24:       685.05 cm**-1
  25:       686.19 cm**-1
  26:       775.79 cm**-1
  27:       894.53 cm**-1
  28:       915.90 cm**-1
  29:       916.82 cm**-1
  30:       922.35 cm**-1
  31:       943.02 cm**-1
  32:       945.54 cm**-1
  33:       964.51 cm**-1
  34:       966.63 cm**-1
  35:      1030.13 cm**-1
  36:      1043.28 cm**-1
  37:      1101.49 cm**-1
  38:      1113.06 cm**-1
  39:      1133.53 cm**-1
  40:      1168.36 cm**-1
  41:      1174.86 cm**-1
  42:      1176.07 cm**-1
  43:      1196.90 cm**-1
  44:      1217.10 cm**-1
  45:      1268.94 cm**-1
  46:      1341.80 cm**-1
  47:      1348.87 cm**-1
  48:      1349.62 cm**-1
  49:      1377.29 cm**-1
  50:      1399.60 cm**-1
  51:      1403.86 cm**-1
  52:      1404.93 cm**-1
  53:      1409.28 cm**-1
  54:      1412.38 cm**-1
  55:      1445.33 cm**-1
  56:      1446.94 cm**-1
  57:      1456.46 cm**-1
  58:      1456.91 cm**-1
  59:      1459.24 cm**-1
  60:      1461.22 cm**-1
  61:      1468.08 cm**-1
  62:      1468.90 cm**-1
  63:      1493.97 cm**-1
  64:      1514.08 cm**-1
  65:      1646.70 cm**-1
  66:      1648.62 cm**-1
  67:      3070.37 cm**-1
  68:      3072.24 cm**-1
  69:      3073.70 cm**-1
  70:      3074.71 cm**-1
  71:      3135.10 cm**-1
  72:      3138.66 cm**-1
  73:      3174.89 cm**-1
  74:      3176.09 cm**-1
  75:      3178.28 cm**-1
  76:      3179.73 cm**-1
  77:      3187.14 cm**-1
  78:      3187.99 cm**-1
  79:      3189.44 cm**-1
  80:      3189.86 cm**-1
  81:      3299.64 cm**-1
  82:      3300.39 cm**-1
  83:      3317.46 cm**-1

IR SPECTRUM
-----------

 Mode   freq       eps      Int      T**2         TX        TY        TZ
       cm**-1   L/(mol*cm) km/mol    a.u.
----------------------------------------------------------------------------
  6:     40.60   0.000065    0.33  0.000496  (-0.000258  0.020481 -0.008755)
  7:     50.77   0.000002    0.01  0.000009  (-0.001111  0.002687 -0.000879)
  8:    107.42   0.000041    0.21  0.000120  ( 0.000887  0.010666 -0.002279)
  9:    148.04   0.000077    0.39  0.000162  (-0.010113  0.002188  0.007413)
 10:    160.77   0.000000    0.00  0.000001  (-0.000545  0.000549  0.000334)
 11:    236.65   0.000007    0.04  0.000009  ( 0.000214 -0.002698  0.001430)
 12:    240.46   0.000002    0.01  0.000003  (-0.000066  0.001691 -0.000283)
 13:    251.10   0.000003    0.02  0.000004  ( 0.001535 -0.001039  0.000703)
 14:    271.34   0.000041    0.21  0.000047  ( 0.002257 -0.002715 -0.005872)
 15:    279.43   0.000022    0.11  0.000024  (-0.001590  0.001834  0.004271)
 16:    334.55   0.000019    0.09  0.000017  (-0.000788  0.001956  0.003595)
 17:    345.02   0.000050    0.25  0.000045  (-0.005625  0.000441  0.003606)
 18:    396.51   0.000167    0.84  0.000131  (-0.000847  0.010931 -0.003348)
 19:    449.73   0.000007    0.03  0.000005  ( 0.002062  0.000161  0.000584)
 20:    494.96   0.000211    1.07  0.000133  ( 0.001238 -0.003633 -0.010887)
 21:    498.88   0.000062    0.31  0.000039  ( 0.005575 -0.002577  0.000974)
 22:    634.03   0.000094    0.47  0.000046  (-0.003444  0.005649  0.001516)
 23:    680.89   0.014205   71.79  0.006511  (-0.000822  0.077549 -0.022272)
 24:    685.05   0.000969    4.90  0.000441  (-0.018392 -0.008703 -0.005223)
 25:    686.19   0.000067    0.34  0.000030  (-0.002262  0.004361 -0.002480)
 26:    775.79   0.009748   49.26  0.003921  (-0.003001 -0.060219  0.016911)
 27:    894.53   0.005414   27.36  0.001889  ( 0.002622  0.042087 -0.010512)
 28:    915.90   0.000316    1.60  0.000108  (-0.002635  0.001799  0.009881)
 29:    916.82   0.000657    3.32  0.000224  ( 0.011109 -0.003947 -0.009194)
 30:    922.35   0.000061    0.31  0.000021  ( 0.001581  0.004211 -0.000674)
 31:    943.02   0.000433    2.19  0.000143  ( 0.001141 -0.010675  0.005286)
 32:    945.54   0.000629    3.18  0.000208  (-0.000347 -0.013818  0.004066)
 33:    964.51   0.000196    0.99  0.000064  (-0.000124  0.006849 -0.004073)
 34:    966.63   0.000208    1.05  0.000067  ( 0.000260 -0.007980  0.001850)
 35:   1030.13   0.003395   17.16  0.001029  ( 0.031697 -0.001897 -0.004510)
 36:   1043.28   0.000338    1.71  0.000101  ( 0.008886  0.000677  0.004668)
 37:   1101.49   0.001034    5.23  0.000293  (-0.000016 -0.003826 -0.016683)
 38:   1113.06   0.003991   20.17  0.001119  ( 0.002988  0.008688  0.032163)
 39:   1133.53   0.000209    1.05  0.000057  ( 0.004808  0.002108  0.005467)
 40:   1168.36   0.019485   98.47  0.005204  ( 0.068956 -0.007010 -0.020006)
 41:   1174.86   0.000042    0.21  0.000011  ( 0.002941  0.001560 -0.000214)
 42:   1176.07   0.004288   21.67  0.001138  ( 0.004051 -0.032423  0.008368)
 43:   1196.90   0.000856    4.32  0.000223  (-0.013556 -0.002301 -0.005831)
 44:   1217.10   0.034278  173.23  0.008789  ( 0.093715 -0.001728 -0.001863)
 45:   1268.94   0.000379    1.92  0.000093  (-0.004966  0.002822  0.007790)
 46:   1341.80   0.009765   49.35  0.002271  (-0.046516  0.004523  0.009322)
 47:   1348.87   0.001844    9.32  0.000427  (-0.019620 -0.001444  0.006291)
 48:   1349.62   0.000070    0.35  0.000016  (-0.002136 -0.003187  0.001231)
 49:   1377.29   0.000738    3.73  0.000167  (-0.005380  0.004692  0.010781)
 50:   1399.60   0.002258   11.41  0.000503  ( 0.012688  0.008247  0.016567)
 51:   1403.86   0.003878   19.60  0.000862  (-0.000944 -0.026497  0.012612)
 52:   1404.93   0.004725   23.88  0.001049  (-0.004934 -0.031335  0.006576)
 53:   1409.28   0.001339    6.77  0.000296  (-0.003588 -0.008677 -0.014433)
 54:   1412.38   0.009669   48.86  0.002136  (-0.037874 -0.002636 -0.026361)
 55:   1445.33   0.000070    0.35  0.000015  (-0.001569 -0.000663  0.003485)
 56:   1446.94   0.000003    0.02  0.000001  (-0.000075 -0.000821 -0.000068)
 57:   1456.46   0.000703    3.55  0.000151  (-0.009489 -0.007387  0.002457)
 58:   1456.91   0.000743    3.76  0.000159  ( 0.001416  0.008273  0.009421)
 59:   1459.24   0.004162   21.03  0.000890  ( 0.010128  0.002566  0.027945)
 60:   1461.22   0.003785   19.13  0.000808  ( 0.007299 -0.014869 -0.023108)
 61:   1468.08   0.000282    1.43  0.000060  ( 0.003318  0.000839  0.006947)
 62:   1468.90   0.002791   14.11  0.000593  ( 0.013485 -0.006408 -0.019238)
 63:   1493.97   0.000205    1.03  0.000043  (-0.002125 -0.002094 -0.005818)
 64:   1514.08   0.001520    7.68  0.000313  ( 0.016597  0.001685  0.005913)
 65:   1646.70   0.027546  139.20  0.005220  ( 0.071363 -0.003358 -0.010779)
 66:   1648.62   0.009188   46.43  0.001739  (-0.038969 -0.002798 -0.014587)
 67:   3070.37   0.002343   11.84  0.000238  (-0.002887 -0.015133  0.000881)
 68:   3072.24   0.002661   13.45  0.000270  (-0.003074  0.014728 -0.006627)
 69:   3073.70   0.001751    8.85  0.000178  (-0.002780  0.004232 -0.012333)
 70:   3074.71   0.001613    8.15  0.000164  (-0.008903 -0.008056 -0.004420)
 71:   3135.10   0.000690    3.49  0.000069  ( 0.000906  0.002072  0.007974)
 72:   3138.66   0.000714    3.61  0.000071  (-0.004406  0.003429  0.006310)
 73:   3174.89   0.001146    5.79  0.000113  (-0.002424 -0.006418  0.008099)
 74:   3176.09   0.001120    5.66  0.000110  (-0.000985 -0.009930 -0.003244)
 75:   3178.28   0.005147   26.01  0.000505  (-0.010310  0.009891  0.017357)
 76:   3179.73   0.004704   23.77  0.000462  (-0.003393 -0.003116 -0.020987)
 77:   3187.14   0.001601    8.09  0.000157  ( 0.007654 -0.008797  0.004561)
 78:   3187.99   0.001350    6.82  0.000132  (-0.002602 -0.010504  0.003876)
 79:   3189.44   0.002984   15.08  0.000292  (-0.016209 -0.005039 -0.001948)
 80:   3189.86   0.002786   14.08  0.000273  (-0.015119  0.003660  0.005528)
 81:   3299.64   0.005498   27.78  0.000520  (-0.021808  0.002145  0.006306)
 82:   3300.39   0.011813   59.70  0.001117  (-0.006310 -0.008543 -0.031688)
 83:   3317.46   0.003158   15.96  0.000297  (-0.003461 -0.004469 -0.016282)

--------------------------
THERMOCHEMISTRY AT 298.15K
--------------------------

Temperature         ... 298.15 K
Pressure            ... 1.00 atm
Total Mass          ... 153.25 AMU

Throughout the following assumptions are being made:
  (1) The electronic state is orbitally nondegenerate
  (2) There are no thermally accessible electronically excited states
  (3) Hindered rotations indicated by low frequency modes are not
      treated as such but are treated as vibrations and this may
      cause some error
  (4) All equations used are the standard statistical mechanics
      equations for an ideal gas
  (5) All vibrations are strictly harmonic

freq.      40.60  E(vib)   ...       0.54
freq.      50.77  E(vib)   ...       0.52
freq.     107.42  E(vib)   ...       0.45
freq.     148.04  E(vib)   ...       0.41
freq.     160.77  E(vib)   ...       0.39
freq.     236.65  E(vib)   ...       0.32
freq.     240.46  E(vib)   ...       0.31
freq.     251.10  E(vib)   ...       0.30
freq.     271.34  E(vib)   ...       0.29
freq.     279.43  E(vib)   ...       0.28
freq.     334.55  E(vib)   ...       0.24
freq.     345.02  E(vib)   ...       0.23
freq.     396.51  E(vib)   ...       0.20
freq.     449.73  E(vib)   ...       0.17
freq.     494.96  E(vib)   ...       0.14
freq.     498.88  E(vib)   ...       0.14
freq.     634.03  E(vib)   ...       0.09
freq.     680.89  E(vib)   ...       0.08
freq.     685.05  E(vib)   ...       0.07
freq.     686.19  E(vib)   ...       0.07
freq.     775.79  E(vib)   ...       0.05
freq.     894.53  E(vib)   ...       0.03
freq.     915.90  E(vib)   ...       0.03
freq.     916.82  E(vib)   ...       0.03
freq.     922.35  E(vib)   ...       0.03
freq.     943.02  E(vib)   ...       0.03
freq.     945.54  E(vib)   ...       0.03
freq.     964.51  E(vib)   ...       0.03
freq.     966.63  E(vib)   ...       0.03
freq.    1030.13  E(vib)   ...       0.02
freq.    1043.28  E(vib)   ...       0.02
freq.    1101.49  E(vib)   ...       0.02
freq.    1113.06  E(vib)   ...       0.01
freq.    1133.53  E(vib)   ...       0.01
freq.    1168.36  E(vib)   ...       0.01
freq.    1174.86  E(vib)   ...       0.01
freq.    1176.07  E(vib)   ...       0.01
freq.    1196.90  E(vib)   ...       0.01
freq.    1217.10  E(vib)   ...       0.01
freq.    1268.94  E(vib)   ...       0.01
freq.    1341.80  E(vib)   ...       0.01
freq.    1348.87  E(vib)   ...       0.01
freq.    1349.62  E(vib)   ...       0.01
freq.    1377.29  E(vib)   ...       0.01
freq.    1399.60  E(vib)   ...       0.00
freq.    1403.86  E(vib)   ...       0.00
freq.    1404.93  E(vib)   ...       0.00
freq.    1409.28  E(vib)   ...       0.00
freq.    1412.38  E(vib)   ...       0.00
freq.    1445.33  E(vib)   ...       0.00
freq.    1446.94  E(vib)   ...       0.00
freq.    1456.46  E(vib)   ...       0.00
freq.    1456.91  E(vib)   ...       0.00
freq.    1459.24  E(vib)   ...       0.00
freq.    1461.22  E(vib)   ...       0.00
freq.    1468.08  E(vib)   ...       0.00
freq.    1468.90  E(vib)   ...       0.00
freq.    1493.97  E(vib)   ...       0.00
freq.    1514.08  E(vib)   ...       0.00
freq.    1646.70  E(vib)   ...       0.00
freq.    1648.62  E(vib)   ...       0.00
freq.    3070.37  E(vib)   ...       0.00
freq.    3072.24  E(vib)   ...       0.00
freq.    3073.70  E(vib)   ...       0.00
freq.    3074.71  E(vib)   ...       0.00
freq.    3135.10  E(vib)   ...       0.00
freq.    3138.66  E(vib)   ...       0.00
freq.    3174.89  E(vib)   ...       0.00
freq.    3176.09  E(vib)   ...       0.00
freq.    3178.28  E(vib)   ...       0.00
freq.    3179.73  E(vib)   ...       0.00
freq.    3187.14  E(vib)   ...       0.00
freq.    3187.99  E(vib)   ...       0.00
freq.    3189.44  E(vib)   ...       0.00
freq.    3189.86  E(vib)   ...       0.00
freq.    3299.64  E(vib)   ...       0.00
freq.    3300.39  E(vib)   ...       0.00
freq.    3317.46  E(vib)   ...       0.00

------------
INNER ENERGY
------------

The inner energy is: U= E(el) + E(ZPE) + E(vib) + E(rot) + E(trans)
    E(el)   - is the total energy from the electronic structure calculation
              = E(kin-el) + E(nuc-el) + E(el-el) + E(nuc-nuc)
    E(ZPE)  - the the zero temperature vibrational energy from the frequency calculation
    E(vib)  - the the finite temperature correction to E(ZPE) due to population
              of excited vibrational states
    E(rot)  - is the rotational thermal energy
    E(trans)- is the translational thermal energy

Summary of contributions to the inner energy U:
Electronic energy                ...   -462.13624347 Eh
Zero point energy                ...      0.25565818 Eh     160.43 kcal/mol
Thermal vibrational correction   ...      0.00918663 Eh       5.76 kcal/mol
Thermal rotational correction    ...      0.00141627 Eh       0.89 kcal/mol
Thermal translational correction ...      0.00141627 Eh       0.89 kcal/mol
-----------------------------------------------------------------------
Total thermal energy                   -461.86856611 Eh

Summary of corrections to the electronic energy:
(perhaps to be used in another calculation)
Total thermal correction                  0.01201917 Eh       7.54 kcal/mol
Non-thermal (ZPE) correction              0.25565818 Eh     160.43 kcal/mol
-----------------------------------------------------------------------
Total correction                          0.26767735 Eh     167.97 kcal/mol

--------
ENTHALPY
--------

The enthalpy is H = U + kB*T
                kB is Boltzmann's constant
Total free energy                 ...   -461.86856611 Eh
Thermal Enthalpy correction       ...      0.00094421 Eh       0.59 kcal/mol
-----------------------------------------------------------------------
Total Enthalpy                    ...   -461.86762190 Eh

Note: Only C1 symmetry has been detected, increase convergence thresholds
      if your molecule has a higher symmetry. Symmetry factor of 1.0 is
      used for the rotational entropy correction.

Note: Rotational entropy computed according to Herzberg
Infrared and Raman Spectra, Chapter V,1, Van Nostrand Reinhold, 1945
Point Group:  C1, Symmetry Number:   1
Rotational constants in cm-1:     0.078399     0.019101     0.018882

Vibrational entropy computed according to the QRRHO of S. Grimme
Chem.Eur.J. 2012 18 9955

-------
ENTROPY
-------

The entropy contributions are T*S = T*(S(el)+S(vib)+S(rot)+S(trans))
     S(el)   - electronic entropy
     S(vib)  - vibrational entropy
     S(rot)  - rotational entropy

                             ****ORCA TERMINATED NORMALLY****
TOTAL RUN TIME: 0 days 1 hours 30 minutes 59 seconds 556 msec
