                         Program Version 5.0.4 -  RELEASE  -
|  1> # ORCA 5.0.4 - /users/bwb16179/postgrad/2024_03/DFT_Crest_Conformers/Opt/prot/4_prot_aq_7.inp # write input file
|  2> # Basic Mode
|  3> #
|  4> ! Opt Freq wB97X Def2-SVP D4 SlowConv TightSCF Defgrid2 Def2/J RIJCOSX CPCM(Water)
|  5>
|  6>
|  7>
|  8> %maxcore 4500
|  9>
| 10> %geom
| 11> Maxiter 150
| 12> END
| 13>
| 14> * xyzfile 1 1 4_prot_aq_7.xyz
| 15>
| 16>                          ****END OF INPUT****
 Total Charge           Charge          ....    1
 Multiplicity           Mult            ....    1
 Number of Electrons    NEL             ....   84
Dispersion correction           -0.004068659
FINAL SINGLE POINT ENERGY      -462.131601067358
Dispersion correction            ... Starting D4
Dispersion correction           -0.004049313
FINAL SINGLE POINT ENERGY      -462.135086670287
Dispersion correction            ... Starting D4
Dispersion correction           -0.004045927
FINAL SINGLE POINT ENERGY      -462.135327051809
Dispersion correction            ... Starting D4
FINAL SINGLE POINT ENERGY      -462.135449033053
FINAL SINGLE POINT ENERGY      -462.135476151862
FINAL SINGLE POINT ENERGY      -462.135493016824
Dispersion correction           -0.004044290
FINAL SINGLE POINT ENERGY      -462.135498902759
Dispersion correction            ... Starting D4
Dispersion correction           -0.004044079
FINAL SINGLE POINT ENERGY      -462.135501763498
Dispersion correction            ... Starting D4
                    ***********************HURRAY********************

CARTESIAN COORDINATES (ANGSTROEM)
---------------------------------
  N     -1.078282   -0.068328    0.369559
  C      0.001526   -0.016415   -0.408190
  N      1.081466    0.113835    0.360277
  H      0.001688   -0.073600   -1.495847
  C      0.679880    0.144392    1.677201
  C     -0.676735    0.034954    1.682764
  C     -2.488060   -0.139302   -0.077320
  C      2.491359    0.125621   -0.091790
  C     -3.037229    1.267032   -0.278567
  H     -3.012872   -0.620821    0.761335
  C     -2.622871   -1.015139   -1.312854
  C      2.637489    0.893584   -1.395824
  C      3.016228   -1.301957   -0.176821
  H      3.026063    0.665394    0.704152
  H      1.394693    0.243116    2.492099
  H     -1.390985    0.023231    2.503983
  H     -2.508716    1.775317   -1.100538
  H     -2.932604    1.868708    0.636374
  H     -4.105037    1.210001   -0.535142
  H     -3.690774   -1.152143   -1.534017
  H     -2.172965   -2.006107   -1.152477
  H     -2.158426   -0.547352   -2.195297
  H      3.706686    0.992108   -1.630749
  H      2.205446    1.902041   -1.316276
  H      2.160416    0.363452   -2.235292
  H      2.906415   -1.823156    0.785763
  H      4.083486   -1.285439   -0.441209
  H      2.474380   -1.867671   -0.951317

 Multiplicity           Mult            ....    1
 Number of Electrons    NEL             ....   84
 Basis Dimension        Dim             ....  239

ORBITAL ENERGIES
----------------

  NO   OCC          E(Eh)            E(eV)
   0   2.0000     -14.509901      -394.8345
   1   2.0000     -14.509792      -394.8315
   2   2.0000     -10.383755      -282.5563
   3   2.0000     -10.337525      -281.2984
   4   2.0000     -10.337494      -281.2975
   5   2.0000     -10.334317      -281.2111
   6   2.0000     -10.333744      -281.1955
   7   2.0000     -10.276450      -279.6364
   8   2.0000     -10.276335      -279.6333
   9   2.0000     -10.274292      -279.5777
  10   2.0000     -10.274242      -279.5763
  11   2.0000      -1.215625       -33.0788
  12   2.0000      -1.095293       -29.8044
  13   2.0000      -0.966219       -26.2922
  14   2.0000      -0.916892       -24.9499
  15   2.0000      -0.915005       -24.8986
  16   2.0000      -0.824447       -22.4344
  17   2.0000      -0.822625       -22.3848
  18   2.0000      -0.806225       -21.9385
  19   2.0000      -0.774096       -21.0642
  20   2.0000      -0.731607       -19.9080
  21   2.0000      -0.724869       -19.7247
  22   2.0000      -0.651514       -17.7286
  23   2.0000      -0.632806       -17.2195
  24   2.0000      -0.605068       -16.4647
  25   2.0000      -0.598689       -16.2911
  26   2.0000      -0.585786       -15.9400
  27   2.0000      -0.581078       -15.8119
  28   2.0000      -0.564191       -15.3524
  29   2.0000      -0.561654       -15.2834
  30   2.0000      -0.546354       -14.8671
  31   2.0000      -0.518925       -14.1207
  32   2.0000      -0.501368       -13.6429
  33   2.0000      -0.497816       -13.5463
  34   2.0000      -0.496779       -13.5181
  35   2.0000      -0.492284       -13.3957
  36   2.0000      -0.474462       -12.9108
  37   2.0000      -0.463978       -12.6255
  38   2.0000      -0.459542       -12.5048
  39   2.0000      -0.457867       -12.4592
  40   2.0000      -0.413534       -11.2528
  41   2.0000      -0.375006       -10.2044
  42   0.0000       0.059604         1.6219
  43   0.0000       0.094091         2.5603
  44   0.0000       0.136776         3.7219
  45   0.0000       0.149130         4.0580
  46   0.0000       0.156320         4.2537

MULLIKEN ATOMIC CHARGES
-----------------------
   0 N :   -0.196982
   1 C :    0.218106
   2 N :   -0.196541
   3 H :    0.131357
   4 C :    0.065310
   5 C :    0.065380
   6 C :   -0.040005
   7 C :   -0.041235
   8 C :    0.001591
   9 H :    0.077078
  10 C :   -0.040961
  11 C :   -0.039480
  12 C :    0.001175
  13 H :    0.077133
  14 H :    0.105207
  15 H :    0.105119
  16 H :    0.048905
  17 H :    0.053974
  18 H :    0.062475
  19 H :    0.067816
  20 H :    0.063580
  21 H :    0.057424
  22 H :    0.067580
  23 H :    0.063403
  24 H :    0.056972
  25 H :    0.054176
  26 H :    0.062534
  27 H :    0.048910
Sum of atomic charges:    1.0000000

LOEWDIN ATOMIC CHARGES
----------------------
   0 N :    0.098808
   1 C :    0.122032
   2 N :    0.098641
   3 H :    0.065775
   4 C :    0.019259
   5 C :    0.019115
   6 C :    0.043805
   7 C :    0.043708
   8 C :   -0.053338
   9 H :    0.049031
  10 C :   -0.056663
  11 C :   -0.056548
  12 C :   -0.053459
  13 H :    0.049030
  14 H :    0.062518
  15 H :    0.062457
  16 H :    0.035888
  17 H :    0.036873
  18 H :    0.044693
  19 H :    0.048780
  20 H :    0.039773
  21 H :    0.037036
  22 H :    0.048596
  23 H :    0.039782
  24 H :    0.036975
  25 H :    0.036971
  26 H :    0.044660
  27 H :    0.035803

  Mayer bond orders larger than 0.100000
B(  0-N ,  1-C ) :   1.3518 B(  0-N ,  5-C ) :   1.1757 B(  0-N ,  6-C ) :   0.8442
B(  1-C ,  2-N ) :   1.3508 B(  1-C ,  3-H ) :   0.9679 B(  2-N ,  4-C ) :   1.1759
B(  2-N ,  7-C ) :   0.8444 B(  4-C ,  5-C ) :   1.5895 B(  4-C , 14-H ) :   0.9865
B(  5-C , 15-H ) :   0.9864 B(  6-C ,  8-C ) :   1.0682 B(  6-C ,  9-H ) :   0.9407
B(  6-C , 10-C ) :   1.0749 B(  7-C , 11-C ) :   1.0742 B(  7-C , 12-C ) :   1.0682
B(  7-C , 13-H ) :   0.9406 B(  8-C , 16-H ) :   0.9626 B(  8-C , 17-H ) :   0.9658
B(  8-C , 18-H ) :   0.9715 B( 10-C , 19-H ) :   0.9651 B( 10-C , 20-H ) :   0.9682
B( 10-C , 21-H ) :   0.9610 B( 11-C , 22-H ) :   0.9654 B( 11-C , 23-H ) :   0.9683
B( 11-C , 24-H ) :   0.9612 B( 12-C , 25-H ) :   0.9659 B( 12-C , 26-H ) :   0.9715
B( 12-C , 27-H ) :   0.9626

Dispersion correction           -0.004043923
FINAL SINGLE POINT ENERGY      -462.135502587609

DIPOLE MOMENT
-------------
                                X             Y             Z
Electronic contribution:      0.01788       0.34179       6.39173
Nuclear contribution   :     -0.01753      -0.33448      -6.16969
                        -----------------------------------------
Total Dipole Moment    :      0.00035       0.00731       0.22203
                        -----------------------------------------
Magnitude (a.u.)       :      0.22216
Magnitude (Debye)      :      0.56467

Dispersion correction in the Hessian             ... Starting D4

VIBRATIONAL FREQUENCIES
-----------------------

Scaling factor for frequencies =  1.000000000  (already applied!)

   0:         0.00 cm**-1
   1:         0.00 cm**-1
   2:         0.00 cm**-1
   3:         0.00 cm**-1
   4:         0.00 cm**-1
   5:         0.00 cm**-1
   6:        36.06 cm**-1
   7:        40.70 cm**-1
   8:       100.13 cm**-1
   9:       139.06 cm**-1
  10:       163.11 cm**-1
  11:       247.51 cm**-1
  12:       257.23 cm**-1
  13:       279.93 cm**-1
  14:       285.90 cm**-1
  15:       305.40 cm**-1
  16:       320.06 cm**-1
  17:       340.50 cm**-1
  18:       410.31 cm**-1
  19:       444.84 cm**-1
  20:       475.34 cm**-1
  21:       513.58 cm**-1
  22:       605.54 cm**-1
  23:       676.89 cm**-1
  24:       681.73 cm**-1
  25:       698.47 cm**-1
  26:       768.50 cm**-1
  27:       891.06 cm**-1
  28:       912.54 cm**-1
  29:       915.00 cm**-1
  30:       918.93 cm**-1
  31:       942.94 cm**-1
  32:       944.80 cm**-1
  33:       965.24 cm**-1
  34:       967.80 cm**-1
  35:      1026.63 cm**-1
  36:      1036.51 cm**-1
  37:      1102.59 cm**-1
  38:      1124.92 cm**-1
  39:      1138.42 cm**-1
  40:      1168.93 cm**-1
  41:      1174.26 cm**-1
  42:      1176.23 cm**-1
  43:      1191.67 cm**-1
  44:      1216.23 cm**-1
  45:      1268.82 cm**-1
  46:      1343.62 cm**-1
  47:      1353.48 cm**-1
  48:      1354.76 cm**-1
  49:      1373.13 cm**-1
  50:      1395.26 cm**-1
  51:      1403.63 cm**-1
  52:      1404.80 cm**-1
  53:      1408.64 cm**-1
  54:      1410.53 cm**-1
  55:      1447.43 cm**-1
  56:      1447.55 cm**-1
  57:      1451.43 cm**-1
  58:      1456.08 cm**-1
  59:      1461.62 cm**-1
  60:      1463.86 cm**-1
  61:      1470.18 cm**-1
  62:      1476.60 cm**-1
  63:      1487.98 cm**-1
  64:      1512.89 cm**-1
  65:      1648.15 cm**-1
  66:      1649.65 cm**-1
  67:      3070.43 cm**-1
  68:      3070.71 cm**-1
  69:      3073.70 cm**-1
  70:      3074.90 cm**-1
  71:      3136.26 cm**-1
  72:      3136.75 cm**-1
  73:      3175.22 cm**-1
  74:      3175.70 cm**-1
  75:      3178.19 cm**-1
  76:      3178.56 cm**-1
  77:      3187.34 cm**-1
  78:      3187.40 cm**-1
  79:      3189.97 cm**-1
  80:      3190.72 cm**-1
  81:      3298.29 cm**-1
  82:      3310.24 cm**-1
  83:      3316.65 cm**-1

IR SPECTRUM
-----------

 Mode   freq       eps      Int      T**2         TX        TY        TZ
       cm**-1   L/(mol*cm) km/mol    a.u.
----------------------------------------------------------------------------
  6:     36.06   0.000047    0.24  0.000409  (-0.003728 -0.019424 -0.004242)
  7:     40.70   0.000027    0.14  0.000206  (-0.000811 -0.008579  0.011483)
  8:    100.13   0.000047    0.24  0.000147  ( 0.005447 -0.010811 -0.000228)
  9:    139.06   0.000007    0.03  0.000015  (-0.000224 -0.000336 -0.003911)
 10:    163.11   0.000000    0.00  0.000001  (-0.000144 -0.000902  0.000097)
 11:    247.51   0.000022    0.11  0.000027  (-0.005059 -0.000371 -0.001197)
 12:    257.23   0.000009    0.04  0.000010  (-0.001607  0.000145  0.002795)
 13:    279.93   0.000030    0.15  0.000033  ( 0.000983 -0.005455  0.001570)
 14:    285.90   0.000021    0.11  0.000023  ( 0.000802 -0.001503 -0.004534)
 15:    305.40   0.000079    0.40  0.000080  (-0.008645  0.002383  0.000190)
 16:    320.06   0.000016    0.08  0.000016  ( 0.000179 -0.000014 -0.003945)
 17:    340.50   0.000047    0.24  0.000043  (-0.005596 -0.003311 -0.000678)
 18:    410.31   0.000066    0.33  0.000050  ( 0.003477  0.006189 -0.000098)
 19:    444.84   0.000066    0.33  0.000046  ( 0.000142  0.000248 -0.006781)
 20:    475.34   0.000002    0.01  0.000001  (-0.000685 -0.000381 -0.000895)
 21:    513.58   0.000223    1.13  0.000135  (-0.010999 -0.003784  0.000261)
 22:    605.54   0.000432    2.18  0.000223  (-0.000097  0.000005 -0.014924)
 23:    676.89   0.013833   69.91  0.006378  ( 0.002204  0.079761 -0.003283)
 24:    681.73   0.000413    2.09  0.000189  ( 0.001951  0.012289 -0.005858)
 25:    698.47   0.000772    3.90  0.000345  ( 0.011894 -0.014250  0.000458)
 26:    768.50   0.009275   46.87  0.003766  (-0.006380  0.060954 -0.003176)
 27:    891.06   0.005107   25.81  0.001788  (-0.007927  0.041459 -0.002611)
 28:    912.54   0.000152    0.77  0.000052  ( 0.000906 -0.000664  0.007124)
 29:    915.00   0.000106    0.53  0.000036  ( 0.000069  0.004189  0.004303)
 30:    918.93   0.000479    2.42  0.000163  ( 0.011171  0.006078 -0.000997)
 31:    942.94   0.000745    3.77  0.000247  (-0.000466  0.014652  0.005639)
 32:    944.80   0.000849    4.29  0.000281  ( 0.000644 -0.015150  0.007112)
 33:    965.24   0.000187    0.94  0.000060  (-0.000851 -0.005909 -0.004967)
 34:    967.80   0.000171    0.86  0.000055  ( 0.001349  0.006571 -0.003165)
 35:   1026.63   0.003432   17.34  0.001043  (-0.032247 -0.001788 -0.000306)
 36:   1036.51   0.000120    0.61  0.000036  ( 0.000109 -0.000701 -0.005974)
 37:   1102.59   0.003917   19.80  0.001109  (-0.000589 -0.002291 -0.033212)
 38:   1124.92   0.000604    3.05  0.000167  (-0.012674  0.002618 -0.000017)
 39:   1138.42   0.000317    1.60  0.000087  (-0.000938  0.000399  0.009260)
 40:   1168.93   0.015822   79.96  0.004224  ( 0.064884  0.003522 -0.001241)
 41:   1174.26   0.000913    4.61  0.000243  ( 0.012239  0.006745  0.006881)
 42:   1176.23   0.005796   29.29  0.001538  (-0.022492 -0.032051  0.002110)
 43:   1191.67   0.001081    5.46  0.000283  ( 0.000300 -0.000795  0.016804)
 44:   1216.23   0.034988  176.82  0.008977  ( 0.094748 -0.000058 -0.000507)
 45:   1268.82   0.006544   33.07  0.001609  (-0.040020  0.002767 -0.000458)
 46:   1343.62   0.000212    1.07  0.000049  ( 0.003272 -0.000454 -0.006190)
 47:   1353.48   0.000229    1.16  0.000053  (-0.007098 -0.001525 -0.000394)
 48:   1354.76   0.000051    0.26  0.000012  ( 0.002226  0.000172  0.002605)
 49:   1373.13   0.009110   46.04  0.002070  ( 0.044969 -0.006667  0.001926)
 50:   1395.26   0.001682    8.50  0.000376  ( 0.000479 -0.000220 -0.019388)
 51:   1403.63   0.007328   37.03  0.001629  ( 0.008194 -0.039523  0.000259)
 52:   1404.80   0.000426    2.15  0.000095  (-0.000768 -0.008746  0.004181)
 53:   1408.64   0.002943   14.87  0.000652  ( 0.019986 -0.004169  0.015332)
 54:   1410.53   0.008594   43.43  0.001901  (-0.007201  0.004175  0.042803)
 55:   1447.43   0.000002    0.01  0.000000  (-0.000053  0.000692 -0.000134)
 56:   1447.55   0.000068    0.34  0.000015  (-0.000029  0.000438  0.003800)
 57:   1451.43   0.000258    1.30  0.000055  ( 0.002579  0.006414  0.002773)
 58:   1456.08   0.003333   16.84  0.000714  ( 0.001500  0.000952 -0.026667)
 59:   1461.62   0.005505   27.82  0.001175  ( 0.024942  0.021818 -0.008782)
 60:   1463.86   0.004305   21.76  0.000918  ( 0.011987  0.007072  0.026908)
 61:   1470.18   0.001275    6.44  0.000271  (-0.013559  0.007447  0.005600)
 62:   1476.60   0.000090    0.45  0.000019  (-0.000303  0.000866 -0.004263)
 63:   1487.98   0.000709    3.58  0.000149  (-0.011751  0.003221  0.000496)
 64:   1512.89   0.000400    2.02  0.000082  ( 0.000796 -0.000753 -0.009016)
 65:   1648.15   0.028558  144.32  0.005407  (-0.073481  0.000582 -0.002719)
 66:   1649.65   0.002388   12.07  0.000452  ( 0.011556 -0.001002 -0.017812)
 67:   3070.43   0.002889   14.60  0.000294  ( 0.004883 -0.016383  0.001161)
 68:   3070.71   0.002201   11.12  0.000224  ( 0.004605 -0.014206 -0.000790)
 69:   3073.70   0.001576    7.97  0.000160  ( 0.000542 -0.003755 -0.012067)
 70:   3074.90   0.001680    8.49  0.000170  ( 0.000715 -0.004040  0.012395)
 71:   3136.26   0.000864    4.36  0.000086  (-0.005765 -0.004248  0.005887)
 72:   3136.75   0.000790    3.99  0.000079  (-0.005527 -0.004505 -0.005264)
 73:   3175.22   0.000929    4.70  0.000091  (-0.000643 -0.009517 -0.000583)
 74:   3175.70   0.001055    5.33  0.000104  ( 0.002313 -0.006903  0.007118)
 75:   3178.19   0.005122   25.88  0.000503  (-0.011437 -0.008390  0.017370)
 76:   3178.56   0.005204   26.30  0.000511  ( 0.009347  0.010524  0.017687)
 77:   3187.34   0.001962    9.92  0.000192  (-0.008710 -0.009135 -0.005728)
 78:   3187.40   0.001768    8.94  0.000173  ( 0.008886  0.007368 -0.006314)
 79:   3189.97   0.002575   13.01  0.000252  ( 0.015286 -0.003439  0.002534)
 80:   3190.72   0.002276   11.50  0.000223  (-0.014196  0.004143  0.001976)
 81:   3298.29   0.005290   26.73  0.000501  (-0.022304 -0.001731  0.000220)
 82:   3310.24   0.013137   66.39  0.001238  ( 0.000221  0.001939  0.035137)
 83:   3316.65   0.000936    4.73  0.000088  ( 0.000350  0.000599  0.009358)

--------------------------
THERMOCHEMISTRY AT 298.15K
--------------------------

Temperature         ... 298.15 K
Pressure            ... 1.00 atm
Total Mass          ... 153.25 AMU

Throughout the following assumptions are being made:
  (1) The electronic state is orbitally nondegenerate
  (2) There are no thermally accessible electronically excited states
  (3) Hindered rotations indicated by low frequency modes are not
      treated as such but are treated as vibrations and this may
      cause some error
  (4) All equations used are the standard statistical mechanics
      equations for an ideal gas
  (5) All vibrations are strictly harmonic

freq.      36.06  E(vib)   ...       0.54
freq.      40.70  E(vib)   ...       0.54
freq.     100.13  E(vib)   ...       0.46
freq.     139.06  E(vib)   ...       0.42
freq.     163.11  E(vib)   ...       0.39
freq.     247.51  E(vib)   ...       0.31
freq.     257.23  E(vib)   ...       0.30
freq.     279.93  E(vib)   ...       0.28
freq.     285.90  E(vib)   ...       0.27
freq.     305.40  E(vib)   ...       0.26
freq.     320.06  E(vib)   ...       0.25
freq.     340.50  E(vib)   ...       0.23
freq.     410.31  E(vib)   ...       0.19
freq.     444.84  E(vib)   ...       0.17
freq.     475.34  E(vib)   ...       0.15
freq.     513.58  E(vib)   ...       0.13
freq.     605.54  E(vib)   ...       0.10
freq.     676.89  E(vib)   ...       0.08
freq.     681.73  E(vib)   ...       0.08
freq.     698.47  E(vib)   ...       0.07
freq.     768.50  E(vib)   ...       0.06
freq.     891.06  E(vib)   ...       0.04
freq.     912.54  E(vib)   ...       0.03
freq.     915.00  E(vib)   ...       0.03
freq.     918.93  E(vib)   ...       0.03
freq.     942.94  E(vib)   ...       0.03
freq.     944.80  E(vib)   ...       0.03
freq.     965.24  E(vib)   ...       0.03
freq.     967.80  E(vib)   ...       0.03
freq.    1026.63  E(vib)   ...       0.02
freq.    1036.51  E(vib)   ...       0.02
freq.    1102.59  E(vib)   ...       0.02
freq.    1124.92  E(vib)   ...       0.01
freq.    1138.42  E(vib)   ...       0.01
freq.    1168.93  E(vib)   ...       0.01
freq.    1174.26  E(vib)   ...       0.01
freq.    1176.23  E(vib)   ...       0.01
freq.    1191.67  E(vib)   ...       0.01
freq.    1216.23  E(vib)   ...       0.01
freq.    1268.82  E(vib)   ...       0.01
freq.    1343.62  E(vib)   ...       0.01
freq.    1353.48  E(vib)   ...       0.01
freq.    1354.76  E(vib)   ...       0.01
freq.    1373.13  E(vib)   ...       0.01
freq.    1395.26  E(vib)   ...       0.00
freq.    1403.63  E(vib)   ...       0.00
freq.    1404.80  E(vib)   ...       0.00
freq.    1408.64  E(vib)   ...       0.00
freq.    1410.53  E(vib)   ...       0.00
freq.    1447.43  E(vib)   ...       0.00
freq.    1447.55  E(vib)   ...       0.00
freq.    1451.43  E(vib)   ...       0.00
freq.    1456.08  E(vib)   ...       0.00
freq.    1461.62  E(vib)   ...       0.00
freq.    1463.86  E(vib)   ...       0.00
freq.    1470.18  E(vib)   ...       0.00
freq.    1476.60  E(vib)   ...       0.00
freq.    1487.98  E(vib)   ...       0.00
freq.    1512.89  E(vib)   ...       0.00
freq.    1648.15  E(vib)   ...       0.00
freq.    1649.65  E(vib)   ...       0.00
freq.    3070.43  E(vib)   ...       0.00
freq.    3070.71  E(vib)   ...       0.00
freq.    3073.70  E(vib)   ...       0.00
freq.    3074.90  E(vib)   ...       0.00
freq.    3136.26  E(vib)   ...       0.00
freq.    3136.75  E(vib)   ...       0.00
freq.    3175.22  E(vib)   ...       0.00
freq.    3175.70  E(vib)   ...       0.00
freq.    3178.19  E(vib)   ...       0.00
freq.    3178.56  E(vib)   ...       0.00
freq.    3187.34  E(vib)   ...       0.00
freq.    3187.40  E(vib)   ...       0.00
freq.    3189.97  E(vib)   ...       0.00
freq.    3190.72  E(vib)   ...       0.00
freq.    3298.29  E(vib)   ...       0.00
freq.    3310.24  E(vib)   ...       0.00
freq.    3316.65  E(vib)   ...       0.00

------------
INNER ENERGY
------------

The inner energy is: U= E(el) + E(ZPE) + E(vib) + E(rot) + E(trans)
    E(el)   - is the total energy from the electronic structure calculation
              = E(kin-el) + E(nuc-el) + E(el-el) + E(nuc-nuc)
    E(ZPE)  - the the zero temperature vibrational energy from the frequency calculation
    E(vib)  - the the finite temperature correction to E(ZPE) due to population
              of excited vibrational states
    E(rot)  - is the rotational thermal energy
    E(trans)- is the translational thermal energy

Summary of contributions to the inner energy U:
Electronic energy                ...   -462.13550259 Eh
Zero point energy                ...      0.25571647 Eh     160.46 kcal/mol
Thermal vibrational correction   ...      0.00914749 Eh       5.74 kcal/mol
Thermal rotational correction    ...      0.00141627 Eh       0.89 kcal/mol
Thermal translational correction ...      0.00141627 Eh       0.89 kcal/mol
-----------------------------------------------------------------------
Total thermal energy                   -461.86780608 Eh

Summary of corrections to the electronic energy:
(perhaps to be used in another calculation)
Total thermal correction                  0.01198003 Eh       7.52 kcal/mol
Non-thermal (ZPE) correction              0.25571647 Eh     160.46 kcal/mol
-----------------------------------------------------------------------
Total correction                          0.26769651 Eh     167.98 kcal/mol

--------
ENTHALPY
--------

The enthalpy is H = U + kB*T
                kB is Boltzmann's constant
Total free energy                 ...   -461.86780608 Eh
Thermal Enthalpy correction       ...      0.00094421 Eh       0.59 kcal/mol
-----------------------------------------------------------------------
Total Enthalpy                    ...   -461.86686187 Eh

Note: Only C1 symmetry has been detected, increase convergence thresholds
      if your molecule has a higher symmetry. Symmetry factor of 1.0 is
      used for the rotational entropy correction.

Note: Rotational entropy computed according to Herzberg
Infrared and Raman Spectra, Chapter V,1, Van Nostrand Reinhold, 1945
Point Group:  C1, Symmetry Number:   1
Rotational constants in cm-1:     0.068534     0.021028     0.019385

Vibrational entropy computed according to the QRRHO of S. Grimme
Chem.Eur.J. 2012 18 9955

-------
ENTROPY
-------

The entropy contributions are T*S = T*(S(el)+S(vib)+S(rot)+S(trans))
     S(el)   - electronic entropy
     S(vib)  - vibrational entropy
     S(rot)  - rotational entropy

                             ****ORCA TERMINATED NORMALLY****
TOTAL RUN TIME: 0 days 1 hours 16 minutes 5 seconds 610 msec
