                         Program Version 5.0.4 -  RELEASE  -
|  1> # ORCA 5.0.4 - /users/bwb16179/postgrad/2024_03/DFT_Crest_Conformers/Opt/prot/4_prot_aq_2.inp # write input file
|  2> # Basic Mode
|  3> #
|  4> ! Opt Freq wB97X Def2-SVP D4 SlowConv TightSCF Defgrid2 Def2/J RIJCOSX CPCM(Water)
|  5>
|  6>
|  7>
|  8> %maxcore 4500
|  9>
| 10> %geom
| 11> Maxiter 150
| 12> END
| 13>
| 14> * xyzfile 1 1 4_prot_aq_2.xyz
| 15>
| 16>                          ****END OF INPUT****
 Total Charge           Charge          ....    1
 Multiplicity           Mult            ....    1
 Number of Electrons    NEL             ....   84
Dispersion correction           -0.004023491
FINAL SINGLE POINT ENERGY      -462.132534310379
Dispersion correction            ... Starting D4
Dispersion correction           -0.004007583
FINAL SINGLE POINT ENERGY      -462.136002011802
Dispersion correction            ... Starting D4
Dispersion correction           -0.004006034
FINAL SINGLE POINT ENERGY      -462.136164112208
Dispersion correction            ... Starting D4
FINAL SINGLE POINT ENERGY      -462.136220859127
Dispersion correction           -0.004006200
FINAL SINGLE POINT ENERGY      -462.136231126186
Dispersion correction            ... Starting D4
Dispersion correction           -0.004006443
FINAL SINGLE POINT ENERGY      -462.136234980980
Dispersion correction            ... Starting D4
                    ***********************HURRAY********************

CARTESIAN COORDINATES (ANGSTROEM)
---------------------------------
  N     -1.020011    0.000503   -0.050483
  C      0.154790   -0.003284    0.573052
  N      1.128313    0.003009   -0.335597
  H      0.290784   -0.010521    1.655119
  C      0.554804    0.011129   -1.587005
  C     -0.795464    0.009586   -1.409884
  C     -2.339814   -0.003740    0.616986
  C      2.581220    0.001603   -0.049738
  C     -3.099312    1.270308    0.275372
  H     -2.106414   -0.010594    1.692469
  C     -3.099672   -1.273168    0.259322
  C      2.973758   -1.276863    0.677813
  C      2.971740    1.267363    0.700685
  H      3.051004    0.011020   -1.044179
  H      1.156672    0.017111   -2.493844
  H     -1.606750    0.014525   -2.135475
  H     -4.041525    1.293337    0.841472
  H     -3.345628    1.309777   -0.797387
  H     -2.511954    2.162257    0.538603
  H     -3.345207   -1.299575   -0.814033
  H     -4.042299   -1.302405    0.824440
  H     -2.513028   -2.168537    0.512314
  H      2.516266   -1.321175    1.678835
  H      4.065915   -1.302661    0.802156
  H      2.667458   -2.165834    0.107282
  H      2.661712    2.165835    0.147301
  H      4.064068    1.293844    0.823309
  H      2.516209    1.291730    1.703273

 Multiplicity           Mult            ....    1
 Number of Electrons    NEL             ....   84
 Basis Dimension        Dim             ....  239

ORBITAL ENERGIES
----------------

  NO   OCC          E(Eh)            E(eV)
   0   2.0000     -14.510266      -394.8444
   1   2.0000     -14.509010      -394.8102
   2   2.0000     -10.383355      -282.5454
   3   2.0000     -10.337570      -281.2996
   4   2.0000     -10.337364      -281.2940
   5   2.0000     -10.335107      -281.2326
   6   2.0000     -10.333753      -281.1957
   7   2.0000     -10.274746      -279.5901
   8   2.0000     -10.274730      -279.5896
   9   2.0000     -10.274519      -279.5839
  10   2.0000     -10.274511      -279.5837
  11   2.0000      -1.215821       -33.0842
  12   2.0000      -1.095488       -29.8097
  13   2.0000      -0.965525       -26.2733
  14   2.0000      -0.920324       -25.0433
  15   2.0000      -0.911661       -24.8076
  16   2.0000      -0.822080       -22.3699
  17   2.0000      -0.821353       -22.3502
  18   2.0000      -0.804070       -21.8799
  19   2.0000      -0.780634       -21.2421
  20   2.0000      -0.731180       -19.8964
  21   2.0000      -0.720084       -19.5945
  22   2.0000      -0.657307       -17.8862
  23   2.0000      -0.627508       -17.0754
  24   2.0000      -0.610245       -16.6056
  25   2.0000      -0.594648       -16.1812
  26   2.0000      -0.585917       -15.9436
  27   2.0000      -0.574200       -15.6248
  28   2.0000      -0.561607       -15.2821
  29   2.0000      -0.557852       -15.1799
  30   2.0000      -0.557191       -15.1619
  31   2.0000      -0.518892       -14.1198
  32   2.0000      -0.503431       -13.6990
  33   2.0000      -0.498865       -13.5748
  34   2.0000      -0.496711       -13.5162
  35   2.0000      -0.490468       -13.3463
  36   2.0000      -0.472259       -12.8508
  37   2.0000      -0.463245       -12.6055
  38   2.0000      -0.458387       -12.4733
  39   2.0000      -0.455821       -12.4035
  40   2.0000      -0.415301       -11.3009
  41   2.0000      -0.374651       -10.1948
  42   0.0000       0.060809         1.6547
  43   0.0000       0.095445         2.5972
  44   0.0000       0.139165         3.7869
  45   0.0000       0.145875         3.9695
  46   0.0000       0.158416         4.3107

MULLIKEN ATOMIC CHARGES
-----------------------
   0 N :   -0.188312
   1 C :    0.213368
   2 N :   -0.196734
   3 H :    0.143474
   4 C :    0.067388
   5 C :    0.052222
   6 C :   -0.050959
   7 C :   -0.043273
   8 C :   -0.011174
   9 H :    0.075566
  10 C :   -0.011059
  11 C :   -0.014664
  12 C :   -0.015041
  13 H :    0.075509
  14 H :    0.105788
  15 H :    0.108847
  16 H :    0.063807
  17 H :    0.050746
  18 H :    0.057081
  19 H :    0.050749
  20 H :    0.063781
  21 H :    0.057073
  22 H :    0.051315
  23 H :    0.063403
  24 H :    0.058114
  25 H :    0.058167
  26 H :    0.063478
  27 H :    0.051340
Sum of atomic charges:    1.0000000

LOEWDIN ATOMIC CHARGES
----------------------
   0 N :    0.102385
   1 C :    0.124367
   2 N :    0.097128
   3 H :    0.070099
   4 C :    0.021921
   5 C :    0.013996
   6 C :    0.043353
   7 C :    0.044006
   8 C :   -0.054508
   9 H :    0.049148
  10 C :   -0.054490
  11 C :   -0.054872
  12 C :   -0.054882
  13 H :    0.048842
  14 H :    0.062514
  15 H :    0.061038
  16 H :    0.045720
  17 H :    0.036004
  18 H :    0.038269
  19 H :    0.036007
  20 H :    0.045721
  21 H :    0.038267
  22 H :    0.035898
  23 H :    0.045554
  24 H :    0.038516
  25 H :    0.038524
  26 H :    0.045580
  27 H :    0.035896

  Mayer bond orders larger than 0.100000
B(  0-N ,  1-C ) :   1.3630 B(  0-N ,  5-C ) :   1.1695 B(  0-N ,  6-C ) :   0.8516
B(  1-C ,  2-N ) :   1.3431 B(  1-C ,  3-H ) :   0.9661 B(  2-N ,  4-C ) :   1.1781
B(  2-N ,  7-C ) :   0.8392 B(  4-C ,  5-C ) :   1.5986 B(  4-C , 14-H ) :   0.9857
B(  5-C , 15-H ) :   0.9831 B(  6-C ,  8-C ) :   1.0697 B(  6-C ,  9-H ) :   0.9393
B(  6-C , 10-C ) :   1.0697 B(  7-C , 11-C ) :   1.0715 B(  7-C , 12-C ) :   1.0715
B(  7-C , 13-H ) :   0.9403 B(  8-C , 16-H ) :   0.9697 B(  8-C , 17-H ) :   0.9626
B(  8-C , 18-H ) :   0.9673 B( 10-C , 19-H ) :   0.9626 B( 10-C , 20-H ) :   0.9697
B( 10-C , 21-H ) :   0.9673 B( 11-C , 22-H ) :   0.9628 B( 11-C , 23-H ) :   0.9698
B( 11-C , 24-H ) :   0.9675 B( 12-C , 25-H ) :   0.9675 B( 12-C , 26-H ) :   0.9697
B( 12-C , 27-H ) :   0.9628

Dispersion correction           -0.004006470
FINAL SINGLE POINT ENERGY      -462.136235650650

DIPOLE MOMENT
-------------
                                X             Y             Z
Electronic contribution:      0.60488       0.02720      -3.79132
Nuclear contribution   :     -0.47039      -0.02699       3.85777
                        -----------------------------------------
Total Dipole Moment    :      0.13449       0.00020       0.06644
                        -----------------------------------------
Magnitude (a.u.)       :      0.15001
Magnitude (Debye)      :      0.38130

Dispersion correction in the Hessian             ... Starting D4

VIBRATIONAL FREQUENCIES
-----------------------

Scaling factor for frequencies =  1.000000000  (already applied!)

   0:         0.00 cm**-1
   1:         0.00 cm**-1
   2:         0.00 cm**-1
   3:         0.00 cm**-1
   4:         0.00 cm**-1
   5:         0.00 cm**-1
   6:        22.44 cm**-1
   7:        55.11 cm**-1
   8:       110.49 cm**-1
   9:       148.24 cm**-1
  10:       165.72 cm**-1
  11:       244.12 cm**-1
  12:       248.04 cm**-1
  13:       250.72 cm**-1
  14:       276.30 cm**-1
  15:       294.13 cm**-1
  16:       333.54 cm**-1
  17:       347.23 cm**-1
  18:       397.77 cm**-1
  19:       450.36 cm**-1
  20:       493.28 cm**-1
  21:       499.22 cm**-1
  22:       632.93 cm**-1
  23:       682.72 cm**-1
  24:       685.08 cm**-1
  25:       686.27 cm**-1
  26:       771.64 cm**-1
  27:       897.83 cm**-1
  28:       915.90 cm**-1
  29:       917.04 cm**-1
  30:       919.22 cm**-1
  31:       939.99 cm**-1
  32:       945.39 cm**-1
  33:       964.65 cm**-1
  34:       965.45 cm**-1
  35:      1030.35 cm**-1
  36:      1042.64 cm**-1
  37:      1100.98 cm**-1
  38:      1109.73 cm**-1
  39:      1134.87 cm**-1
  40:      1169.01 cm**-1
  41:      1174.63 cm**-1
  42:      1175.91 cm**-1
  43:      1196.61 cm**-1
  44:      1217.38 cm**-1
  45:      1269.54 cm**-1
  46:      1344.79 cm**-1
  47:      1346.81 cm**-1
  48:      1350.90 cm**-1
  49:      1377.46 cm**-1
  50:      1399.50 cm**-1
  51:      1403.27 cm**-1
  52:      1405.13 cm**-1
  53:      1409.12 cm**-1
  54:      1412.97 cm**-1
  55:      1445.69 cm**-1
  56:      1449.03 cm**-1
  57:      1455.61 cm**-1
  58:      1458.33 cm**-1
  59:      1459.67 cm**-1
  60:      1462.25 cm**-1
  61:      1468.32 cm**-1
  62:      1470.28 cm**-1
  63:      1495.56 cm**-1
  64:      1514.58 cm**-1
  65:      1646.57 cm**-1
  66:      1648.83 cm**-1
  67:      3072.16 cm**-1
  68:      3072.38 cm**-1
  69:      3073.99 cm**-1
  70:      3074.25 cm**-1
  71:      3138.86 cm**-1
  72:      3142.60 cm**-1
  73:      3175.63 cm**-1
  74:      3175.96 cm**-1
  75:      3179.20 cm**-1
  76:      3179.48 cm**-1
  77:      3187.99 cm**-1
  78:      3188.51 cm**-1
  79:      3189.75 cm**-1
  80:      3190.23 cm**-1
  81:      3297.25 cm**-1
  82:      3298.30 cm**-1
  83:      3316.02 cm**-1

IR SPECTRUM
-----------

 Mode   freq       eps      Int      T**2         TX        TY        TZ
       cm**-1   L/(mol*cm) km/mol    a.u.
----------------------------------------------------------------------------
  6:     22.44   0.000055    0.28  0.000766  ( 0.000019 -0.027678 -0.000542)
  7:     55.11   0.000002    0.01  0.000009  (-0.000069 -0.003013 -0.000043)
  8:    110.49   0.000052    0.26  0.000147  (-0.000071  0.012112 -0.000004)
  9:    148.24   0.000087    0.44  0.000182  ( 0.010743  0.000064 -0.008166)
 10:    165.72   0.000000    0.00  0.000000  (-0.000067 -0.000425  0.000102)
 11:    244.12   0.000004    0.02  0.000005  (-0.001677 -0.000136 -0.001503)
 12:    248.04   0.000002    0.01  0.000002  (-0.000141 -0.001419  0.000470)
 13:    250.72   0.000010    0.05  0.000013  ( 0.000078 -0.003594 -0.000035)
 14:    276.30   0.000035    0.18  0.000040  ( 0.002319 -0.000175 -0.005857)
 15:    294.13   0.000019    0.10  0.000020  ( 0.001109  0.000006 -0.004381)
 16:    333.54   0.000023    0.12  0.000022  (-0.001133 -0.000089  0.004505)
 17:    347.23   0.000057    0.29  0.000052  (-0.006159  0.000005  0.003686)
 18:    397.77   0.000174    0.88  0.000137  (-0.000045 -0.011686 -0.000080)
 19:    450.36   0.000003    0.01  0.000002  (-0.000034  0.001325 -0.000046)
 20:    493.28   0.000196    0.99  0.000124  ( 0.001926  0.000156 -0.010962)
 21:    499.22   0.000050    0.25  0.000031  ( 0.005179  0.000121  0.002139)
 22:    632.93   0.000049    0.25  0.000024  (-0.003233  0.000015  0.003674)
 23:    682.72   0.014488   73.22  0.006622  ( 0.000570 -0.081376 -0.000305)
 24:    685.08   0.000406    2.05  0.000185  (-0.000491  0.013598 -0.000002)
 25:    686.27   0.000879    4.44  0.000400  (-0.018492 -0.002932 -0.007024)
 26:    771.64   0.009287   46.93  0.003756  (-0.000035  0.061285  0.000326)
 27:    897.83   0.005362   27.10  0.001864  ( 0.000048  0.043169  0.000300)
 28:    915.90   0.000338    1.71  0.000115  ( 0.003067  0.000125 -0.010280)
 29:    917.04   0.000684    3.46  0.000233  (-0.011327 -0.000373  0.010210)
 30:    919.22   0.000274    1.39  0.000093  ( 0.000112 -0.009646 -0.000166)
 31:    939.99   0.000420    2.12  0.000139  ( 0.000183 -0.011795 -0.000349)
 32:    945.39   0.000610    3.08  0.000201  ( 0.000001 -0.014190 -0.000156)
 33:    964.65   0.000057    0.29  0.000018  ( 0.000013  0.004292  0.000037)
 34:    965.45   0.000385    1.95  0.000124  (-0.000087  0.011155  0.000128)
 35:   1030.35   0.003322   16.79  0.001006  ( 0.031358  0.000004 -0.004789)
 36:   1042.64   0.000362    1.83  0.000108  (-0.008804 -0.000013 -0.005552)
 37:   1100.98   0.000453    2.29  0.000129  ( 0.000186 -0.000154  0.011334)
 38:   1109.73   0.004637   23.43  0.001304  (-0.001140  0.000111 -0.036091)
 39:   1134.87   0.000094    0.47  0.000026  ( 0.001868 -0.000022  0.004718)
 40:   1169.01   0.018664   94.32  0.004982  ( 0.067874 -0.000042 -0.019376)
 41:   1174.63   0.000144    0.73  0.000038  (-0.000786  0.006123  0.000298)
 42:   1175.91   0.004163   21.04  0.001105  (-0.000300 -0.033236 -0.000082)
 43:   1196.61   0.001118    5.65  0.000292  ( 0.015993  0.000015  0.005993)
 44:   1217.38   0.035807  180.95  0.009179  ( 0.095786  0.000071 -0.001917)
 45:   1269.54   0.000251    1.27  0.000062  (-0.001410 -0.000057  0.007721)
 46:   1344.79   0.010797   54.56  0.002505  ( 0.048590 -0.000025 -0.012022)
 47:   1346.81   0.000104    0.52  0.000024  (-0.000904 -0.004811  0.000238)
 48:   1350.90   0.000023    0.12  0.000005  ( 0.000806 -0.002167 -0.000200)
 49:   1377.46   0.000796    4.02  0.000180  ( 0.006107  0.000308 -0.011952)
 50:   1399.50   0.001530    7.73  0.000341  (-0.008867  0.001561 -0.016130)
 51:   1403.27   0.003529   17.83  0.000785  (-0.000005  0.027999  0.000940)
 52:   1405.13   0.004803   24.27  0.001067  (-0.000832 -0.032644 -0.000643)
 53:   1409.12   0.001144    5.78  0.000253  (-0.015912  0.000246  0.000158)
 54:   1412.97   0.010627   53.71  0.002347  ( 0.036646 -0.000535  0.031683)
 55:   1445.69   0.000004    0.02  0.000001  (-0.000150  0.000400  0.000859)
 56:   1449.03   0.000038    0.19  0.000008  (-0.000051 -0.002847 -0.000063)
 57:   1455.61   0.000416    2.10  0.000089  (-0.000068 -0.009443 -0.000301)
 58:   1458.33   0.003141   15.87  0.000672  (-0.012005  0.000446 -0.022974)
 59:   1459.67   0.000371    1.88  0.000079  (-0.000141  0.008764  0.001594)
 60:   1462.25   0.004362   22.04  0.000931  (-0.007414 -0.000582  0.029590)
 61:   1468.32   0.001047    5.29  0.000222  ( 0.011554  0.000210 -0.009431)
 62:   1470.28   0.003067   15.50  0.000651  ( 0.005897  0.000150 -0.024822)
 63:   1495.56   0.000128    0.65  0.000027  ( 0.001507 -0.000071  0.004936)
 64:   1514.58   0.001414    7.15  0.000291  ( 0.016035 -0.000054  0.005856)
 65:   1646.57   0.018501   93.50  0.003506  (-0.057039 -0.000092  0.015905)
 66:   1648.83   0.018193   91.94  0.003443  ( 0.057794 -0.000050  0.010160)
 67:   3072.16   0.002780   14.05  0.000282  ( 0.000113 -0.016802  0.000115)
 68:   3072.38   0.002943   14.87  0.000299  ( 0.000291  0.017285  0.000345)
 69:   3073.99   0.001515    7.66  0.000154  (-0.004974 -0.000231 -0.011359)
 70:   3074.25   0.001108    5.60  0.000112  (-0.008881  0.000625 -0.005760)
 71:   3138.86   0.000491    2.48  0.000049  (-0.000568  0.000047 -0.006961)
 72:   3142.60   0.000599    3.03  0.000059  ( 0.003965  0.000097 -0.006614)
 73:   3175.63   0.000859    4.34  0.000084  (-0.000280  0.009172  0.000429)
 74:   3175.96   0.000860    4.35  0.000085  (-0.000040  0.009183 -0.000428)
 75:   3179.20   0.005312   26.85  0.000521  (-0.003714 -0.000058 -0.022531)
 76:   3179.48   0.005192   26.24  0.000510  (-0.012140 -0.000356  0.019028)
 77:   3187.99   0.001325    6.70  0.000130  (-0.000160 -0.011388 -0.000156)
 78:   3188.51   0.001233    6.23  0.000121  (-0.000223 -0.010983  0.000079)
 79:   3189.75   0.003250   16.42  0.000318  (-0.017180  0.000140 -0.004769)
 80:   3190.23   0.002903   14.67  0.000284  (-0.015325  0.000126  0.007009)
 81:   3297.25   0.012125   61.28  0.001148  (-0.005708  0.000232 -0.033391)
 82:   3298.30   0.005274   26.65  0.000499  (-0.021880 -0.000016  0.004493)
 83:   3316.02   0.003183   16.09  0.000300  ( 0.001147 -0.000120  0.017269)

--------------------------
THERMOCHEMISTRY AT 298.15K
--------------------------

Temperature         ... 298.15 K
Pressure            ... 1.00 atm
Total Mass          ... 153.25 AMU

Throughout the following assumptions are being made:
  (1) The electronic state is orbitally nondegenerate
  (2) There are no thermally accessible electronically excited states
  (3) Hindered rotations indicated by low frequency modes are not
      treated as such but are treated as vibrations and this may
      cause some error
  (4) All equations used are the standard statistical mechanics
      equations for an ideal gas
  (5) All vibrations are strictly harmonic

freq.      22.44  E(vib)   ...       0.56
freq.      55.11  E(vib)   ...       0.52
freq.     110.49  E(vib)   ...       0.45
freq.     148.24  E(vib)   ...       0.41
freq.     165.72  E(vib)   ...       0.39
freq.     244.12  E(vib)   ...       0.31
freq.     248.04  E(vib)   ...       0.31
freq.     250.72  E(vib)   ...       0.30
freq.     276.30  E(vib)   ...       0.28
freq.     294.13  E(vib)   ...       0.27
freq.     333.54  E(vib)   ...       0.24
freq.     347.23  E(vib)   ...       0.23
freq.     397.77  E(vib)   ...       0.20
freq.     450.36  E(vib)   ...       0.17
freq.     493.28  E(vib)   ...       0.14
freq.     499.22  E(vib)   ...       0.14
freq.     632.93  E(vib)   ...       0.09
freq.     682.72  E(vib)   ...       0.08
freq.     685.08  E(vib)   ...       0.07
freq.     686.27  E(vib)   ...       0.07
freq.     771.64  E(vib)   ...       0.05
freq.     897.83  E(vib)   ...       0.03
freq.     915.90  E(vib)   ...       0.03
freq.     917.04  E(vib)   ...       0.03
freq.     919.22  E(vib)   ...       0.03
freq.     939.99  E(vib)   ...       0.03
freq.     945.39  E(vib)   ...       0.03
freq.     964.65  E(vib)   ...       0.03
freq.     965.45  E(vib)   ...       0.03
freq.    1030.35  E(vib)   ...       0.02
freq.    1042.64  E(vib)   ...       0.02
freq.    1100.98  E(vib)   ...       0.02
freq.    1109.73  E(vib)   ...       0.02
freq.    1134.87  E(vib)   ...       0.01
freq.    1169.01  E(vib)   ...       0.01
freq.    1174.63  E(vib)   ...       0.01
freq.    1175.91  E(vib)   ...       0.01
freq.    1196.61  E(vib)   ...       0.01
freq.    1217.38  E(vib)   ...       0.01
freq.    1269.54  E(vib)   ...       0.01
freq.    1344.79  E(vib)   ...       0.01
freq.    1346.81  E(vib)   ...       0.01
freq.    1350.90  E(vib)   ...       0.01
freq.    1377.46  E(vib)   ...       0.01
freq.    1399.50  E(vib)   ...       0.00
freq.    1403.27  E(vib)   ...       0.00
freq.    1405.13  E(vib)   ...       0.00
freq.    1409.12  E(vib)   ...       0.00
freq.    1412.97  E(vib)   ...       0.00
freq.    1445.69  E(vib)   ...       0.00
freq.    1449.03  E(vib)   ...       0.00
freq.    1455.61  E(vib)   ...       0.00
freq.    1458.33  E(vib)   ...       0.00
freq.    1459.67  E(vib)   ...       0.00
freq.    1462.25  E(vib)   ...       0.00
freq.    1468.32  E(vib)   ...       0.00
freq.    1470.28  E(vib)   ...       0.00
freq.    1495.56  E(vib)   ...       0.00
freq.    1514.58  E(vib)   ...       0.00
freq.    1646.57  E(vib)   ...       0.00
freq.    1648.83  E(vib)   ...       0.00
freq.    3072.16  E(vib)   ...       0.00
freq.    3072.38  E(vib)   ...       0.00
freq.    3073.99  E(vib)   ...       0.00
freq.    3074.25  E(vib)   ...       0.00
freq.    3138.86  E(vib)   ...       0.00
freq.    3142.60  E(vib)   ...       0.00
freq.    3175.63  E(vib)   ...       0.00
freq.    3175.96  E(vib)   ...       0.00
freq.    3179.20  E(vib)   ...       0.00
freq.    3179.48  E(vib)   ...       0.00
freq.    3187.99  E(vib)   ...       0.00
freq.    3188.51  E(vib)   ...       0.00
freq.    3189.75  E(vib)   ...       0.00
freq.    3190.23  E(vib)   ...       0.00
freq.    3297.25  E(vib)   ...       0.00
freq.    3298.30  E(vib)   ...       0.00
freq.    3316.02  E(vib)   ...       0.00

------------
INNER ENERGY
------------

The inner energy is: U= E(el) + E(ZPE) + E(vib) + E(rot) + E(trans)
    E(el)   - is the total energy from the electronic structure calculation
              = E(kin-el) + E(nuc-el) + E(el-el) + E(nuc-nuc)
    E(ZPE)  - the the zero temperature vibrational energy from the frequency calculation
    E(vib)  - the the finite temperature correction to E(ZPE) due to population
              of excited vibrational states
    E(rot)  - is the rotational thermal energy
    E(trans)- is the translational thermal energy

Summary of contributions to the inner energy U:
Electronic energy                ...   -462.13623565 Eh
Zero point energy                ...      0.25574639 Eh     160.48 kcal/mol
Thermal vibrational correction   ...      0.00915532 Eh       5.75 kcal/mol
Thermal rotational correction    ...      0.00141627 Eh       0.89 kcal/mol
Thermal translational correction ...      0.00141627 Eh       0.89 kcal/mol
-----------------------------------------------------------------------
Total thermal energy                   -461.86850140 Eh

Summary of corrections to the electronic energy:
(perhaps to be used in another calculation)
Total thermal correction                  0.01198786 Eh       7.52 kcal/mol
Non-thermal (ZPE) correction              0.25574639 Eh     160.48 kcal/mol
-----------------------------------------------------------------------
Total correction                          0.26773426 Eh     168.01 kcal/mol

--------
ENTHALPY
--------

The enthalpy is H = U + kB*T
                kB is Boltzmann's constant
Total free energy                 ...   -461.86850140 Eh
Thermal Enthalpy correction       ...      0.00094421 Eh       0.59 kcal/mol
-----------------------------------------------------------------------
Total Enthalpy                    ...   -461.86755719 Eh

Note: Only C1 symmetry has been detected, increase convergence thresholds
      if your molecule has a higher symmetry. Symmetry factor of 1.0 is
      used for the rotational entropy correction.

Note: Rotational entropy computed according to Herzberg
Infrared and Raman Spectra, Chapter V,1, Van Nostrand Reinhold, 1945
Point Group:  C1, Symmetry Number:   1
Rotational constants in cm-1:     0.078279     0.019053     0.018941

Vibrational entropy computed according to the QRRHO of S. Grimme
Chem.Eur.J. 2012 18 9955

-------
ENTROPY
-------

The entropy contributions are T*S = T*(S(el)+S(vib)+S(rot)+S(trans))
     S(el)   - electronic entropy
     S(vib)  - vibrational entropy
     S(rot)  - rotational entropy

                             ****ORCA TERMINATED NORMALLY****
TOTAL RUN TIME: 0 days 1 hours 6 minutes 20 seconds 959 msec
