                         Program Version 5.0.4 -  RELEASE  -
|  1> # ORCA 5.0.4 - /users/bwb16179/postgrad/2024_03/DFT_Crest_Conformers/Opt/prot/4_prot_aq_10.inp # write input file
|  2> # Basic Mode
|  3> #
|  4> ! Opt Freq wB97X Def2-SVP D4 SlowConv TightSCF Defgrid2 Def2/J RIJCOSX CPCM(Water)
|  5>
|  6>
|  7>
|  8> %maxcore 4500
|  9>
| 10> %geom
| 11> Maxiter 150
| 12> END
| 13>
| 14> * xyzfile 1 1 4_prot_aq_10.xyz
| 15>
| 16>                          ****END OF INPUT****
 Total Charge           Charge          ....    1
 Multiplicity           Mult            ....    1
 Number of Electrons    NEL             ....   84
Dispersion correction           -0.003992459
FINAL SINGLE POINT ENERGY      -462.135145871738
Dispersion correction            ... Starting D4
Dispersion correction           -0.003992549
FINAL SINGLE POINT ENERGY      -462.135294998678
Dispersion correction            ... Starting D4
Dispersion correction           -0.003993619
FINAL SINGLE POINT ENERGY      -462.135654505494
Dispersion correction            ... Starting D4
FINAL SINGLE POINT ENERGY      -462.135889310916
FINAL SINGLE POINT ENERGY      -462.135974454523
FINAL SINGLE POINT ENERGY      -462.136006700169
FINAL SINGLE POINT ENERGY      -462.136038666600
FINAL SINGLE POINT ENERGY      -462.136053594016
Dispersion correction           -0.003999894
FINAL SINGLE POINT ENERGY      -462.136066094100
Dispersion correction            ... Starting D4
Dispersion correction           -0.003999595
FINAL SINGLE POINT ENERGY      -462.136071181994
Dispersion correction            ... Starting D4
                    ***********************HURRAY********************

CARTESIAN COORDINATES (ANGSTROEM)
---------------------------------
  N     -1.022487   -0.020740   -0.054056
  C      0.132392    0.288924    0.529604
  N      1.119359   -0.352330   -0.092693
  H      0.236498    0.959375    1.381715
  C      0.574733   -1.097468   -1.116049
  C     -0.770110   -0.891514   -1.091922
  C     -2.349830    0.472362    0.372287
  C      2.569480   -0.259290    0.195097
  C     -3.012402    1.239964   -0.762490
  H     -2.135283    1.163815    1.200987
  C     -3.193828   -0.684866    0.888020
  C      2.811732    0.231289    1.612359
  C      3.243871    0.612898   -0.855886
  H      2.937148   -1.293091    0.106186
  H      1.190195   -1.714982   -1.767586
  H     -1.561222   -1.296396   -1.720405
  H     -2.370288    2.061346   -1.112979
  H     -3.960245    1.666043   -0.403399
  H     -3.238017    0.576018   -1.611761
  H     -3.422311   -1.399422    0.081333
  H     -4.145049   -0.294085    1.277301
  H     -2.678173   -1.218729    1.699789
  H      3.888480    0.172010    1.823673
  H      2.281771   -0.387570    2.351597
  H      2.505468    1.282139    1.735756
  H      4.327693    0.633931   -0.671422
  H      2.859565    1.643769   -0.804474
  H      3.076239    0.221679   -1.870388

 Multiplicity           Mult            ....    1
 Number of Electrons    NEL             ....   84
 Basis Dimension        Dim             ....  239

ORBITAL ENERGIES
----------------

  NO   OCC          E(Eh)            E(eV)
   0   2.0000     -14.509816      -394.8322
   1   2.0000     -14.509126      -394.8134
   2   2.0000     -10.384173      -282.5677
   3   2.0000     -10.337755      -281.3046
   4   2.0000     -10.337295      -281.2921
   5   2.0000     -10.334483      -281.2156
   6   2.0000     -10.333829      -281.1978
   7   2.0000     -10.277040      -279.6525
   8   2.0000     -10.274438      -279.5817
   9   2.0000     -10.274428      -279.5814
  10   2.0000     -10.274249      -279.5765
  11   2.0000      -1.215559       -33.0770
  12   2.0000      -1.095319       -29.8051
  13   2.0000      -0.965544       -26.2738
  14   2.0000      -0.920553       -25.0495
  15   2.0000      -0.912903       -24.8413
  16   2.0000      -0.826121       -22.4799
  17   2.0000      -0.821345       -22.3499
  18   2.0000      -0.800521       -21.7833
  19   2.0000      -0.779527       -21.2120
  20   2.0000      -0.730036       -19.8653
  21   2.0000      -0.719824       -19.5874
  22   2.0000      -0.660677       -17.9779
  23   2.0000      -0.633645       -17.2424
  24   2.0000      -0.607820       -16.5396
  25   2.0000      -0.594161       -16.1680
  26   2.0000      -0.585693       -15.9375
  27   2.0000      -0.576083       -15.6760
  28   2.0000      -0.568586       -15.4720
  29   2.0000      -0.558217       -15.1899
  30   2.0000      -0.544242       -14.8096
  31   2.0000      -0.518680       -14.1140
  32   2.0000      -0.502888       -13.6843
  33   2.0000      -0.499488       -13.5917
  34   2.0000      -0.497170       -13.5287
  35   2.0000      -0.491158       -13.3651
  36   2.0000      -0.474251       -12.9050
  37   2.0000      -0.464287       -12.6339
  38   2.0000      -0.460150       -12.5213
  39   2.0000      -0.456534       -12.4229
  40   2.0000      -0.412633       -11.2283
  41   2.0000      -0.375745       -10.2245
  42   0.0000       0.062475         1.7000
  43   0.0000       0.092716         2.5229
  44   0.0000       0.139947         3.8081
  45   0.0000       0.146572         3.9884
  46   0.0000       0.161015         4.3814

MULLIKEN ATOMIC CHARGES
-----------------------
   0 N :   -0.189984
   1 C :    0.217831
   2 N :   -0.202723
   3 H :    0.136084
   4 C :    0.065500
   5 C :    0.058763
   6 C :   -0.049741
   7 C :   -0.029916
   8 C :   -0.013601
   9 H :    0.075312
  10 C :   -0.008894
  11 C :   -0.048176
  12 C :   -0.005889
  13 H :    0.078964
  14 H :    0.104773
  15 H :    0.108135
  16 H :    0.057525
  17 H :    0.063708
  18 H :    0.050829
  19 H :    0.050308
  20 H :    0.063505
  21 H :    0.056098
  22 H :    0.069315
  23 H :    0.065633
  24 H :    0.059435
  25 H :    0.062563
  26 H :    0.049633
  27 H :    0.055007
Sum of atomic charges:    1.0000000

LOEWDIN ATOMIC CHARGES
----------------------
   0 N :    0.099083
   1 C :    0.123605
   2 N :    0.095647
   3 H :    0.068809
   4 C :    0.020937
   5 C :    0.017319
   6 C :    0.043363
   7 C :    0.044865
   8 C :   -0.054646
   9 H :    0.048958
  10 C :   -0.054512
  11 C :   -0.057545
  12 C :   -0.053377
  13 H :    0.049004
  14 H :    0.062248
  15 H :    0.061098
  16 H :    0.038305
  17 H :    0.045801
  18 H :    0.035923
  19 H :    0.035948
  20 H :    0.045479
  21 H :    0.037951
  22 H :    0.049938
  23 H :    0.040111
  24 H :    0.037867
  25 H :    0.044857
  26 H :    0.036488
  27 H :    0.036479

  Mayer bond orders larger than 0.100000
B(  0-N ,  1-C ) :   1.3555 B(  0-N ,  5-C ) :   1.1661 B(  0-N ,  6-C ) :   0.8517
B(  1-C ,  2-N ) :   1.3528 B(  1-C ,  3-H ) :   0.9653 B(  2-N ,  4-C ) :   1.1710
B(  2-N ,  7-C ) :   0.8435 B(  4-C ,  5-C ) :   1.6038 B(  4-C , 14-H ) :   0.9870
B(  5-C , 15-H ) :   0.9838 B(  6-C ,  8-C ) :   1.0702 B(  6-C ,  9-H ) :   0.9389
B(  6-C , 10-C ) :   1.0706 B(  7-C , 11-C ) :   1.0811 B(  7-C , 12-C ) :   1.0664
B(  7-C , 13-H ) :   0.9417 B(  8-C , 16-H ) :   0.9673 B(  8-C , 17-H ) :   0.9695
B(  8-C , 18-H ) :   0.9628 B( 10-C , 19-H ) :   0.9625 B( 10-C , 20-H ) :   0.9699
B( 10-C , 21-H ) :   0.9670 B( 11-C , 22-H ) :   0.9630 B( 11-C , 23-H ) :   0.9656
B( 11-C , 24-H ) :   0.9589 B( 12-C , 25-H ) :   0.9710 B( 12-C , 26-H ) :   0.9630
B( 12-C , 27-H ) :   0.9658

Dispersion correction           -0.003999370
FINAL SINGLE POINT ENERGY      -462.136070755894

DIPOLE MOMENT
-------------
                                X             Y             Z
Electronic contribution:      0.45929      -2.99420      -1.72356
Nuclear contribution   :     -0.32125       2.96470       1.91273
                        -----------------------------------------
Total Dipole Moment    :      0.13805      -0.02950       0.18917
                        -----------------------------------------
Magnitude (a.u.)       :      0.23604
Magnitude (Debye)      :      0.59996

Dispersion correction in the Hessian             ... Starting D4

VIBRATIONAL FREQUENCIES
-----------------------

Scaling factor for frequencies =  1.000000000  (already applied!)

   0:         0.00 cm**-1
   1:         0.00 cm**-1
   2:         0.00 cm**-1
   3:         0.00 cm**-1
   4:         0.00 cm**-1
   5:         0.00 cm**-1
   6:        11.42 cm**-1
   7:        45.34 cm**-1
   8:       116.42 cm**-1
   9:       148.61 cm**-1
  10:       163.53 cm**-1
  11:       240.79 cm**-1
  12:       248.65 cm**-1
  13:       262.52 cm**-1
  14:       283.96 cm**-1
  15:       299.07 cm**-1
  16:       323.22 cm**-1
  17:       354.93 cm**-1
  18:       405.81 cm**-1
  19:       442.56 cm**-1
  20:       485.38 cm**-1
  21:       500.13 cm**-1
  22:       628.21 cm**-1
  23:       674.23 cm**-1
  24:       680.55 cm**-1
  25:       687.22 cm**-1
  26:       773.25 cm**-1
  27:       889.80 cm**-1
  28:       914.71 cm**-1
  29:       915.71 cm**-1
  30:       920.23 cm**-1
  31:       939.47 cm**-1
  32:       942.55 cm**-1
  33:       966.60 cm**-1
  34:       967.39 cm**-1
  35:      1029.99 cm**-1
  36:      1043.94 cm**-1
  37:      1098.96 cm**-1
  38:      1113.64 cm**-1
  39:      1133.32 cm**-1
  40:      1167.09 cm**-1
  41:      1172.20 cm**-1
  42:      1173.71 cm**-1
  43:      1195.04 cm**-1
  44:      1218.21 cm**-1
  45:      1272.34 cm**-1
  46:      1340.90 cm**-1
  47:      1348.26 cm**-1
  48:      1352.86 cm**-1
  49:      1371.40 cm**-1
  50:      1390.58 cm**-1
  51:      1403.73 cm**-1
  52:      1404.86 cm**-1
  53:      1408.73 cm**-1
  54:      1412.27 cm**-1
  55:      1444.73 cm**-1
  56:      1447.31 cm**-1
  57:      1454.97 cm**-1
  58:      1456.19 cm**-1
  59:      1460.52 cm**-1
  60:      1464.64 cm**-1
  61:      1467.57 cm**-1
  62:      1474.22 cm**-1
  63:      1487.82 cm**-1
  64:      1510.12 cm**-1
  65:      1648.25 cm**-1
  66:      1653.76 cm**-1
  67:      3070.57 cm**-1
  68:      3071.75 cm**-1
  69:      3073.95 cm**-1
  70:      3074.28 cm**-1
  71:      3127.26 cm**-1
  72:      3134.31 cm**-1
  73:      3175.41 cm**-1
  74:      3175.69 cm**-1
  75:      3177.92 cm**-1
  76:      3178.72 cm**-1
  77:      3186.22 cm**-1
  78:      3188.33 cm**-1
  79:      3190.13 cm**-1
  80:      3190.77 cm**-1
  81:      3299.88 cm**-1
  82:      3310.85 cm**-1
  83:      3318.04 cm**-1

IR SPECTRUM
-----------

 Mode   freq       eps      Int      T**2         TX        TY        TZ
       cm**-1   L/(mol*cm) km/mol    a.u.
----------------------------------------------------------------------------
  6:     11.42   0.000060    0.31  0.001651  (-0.000306 -0.017631  0.036602)
  7:     45.34   0.000004    0.02  0.000025  ( 0.001992 -0.003334  0.003136)
  8:    116.42   0.000042    0.21  0.000111  (-0.004248 -0.008630  0.004326)
  9:    148.61   0.000054    0.27  0.000113  (-0.007662  0.004733  0.005654)
 10:    163.53   0.000012    0.06  0.000022  (-0.004221 -0.000156  0.002040)
 11:    240.79   0.000005    0.03  0.000006  ( 0.000028 -0.002525  0.000216)
 12:    248.65   0.000001    0.00  0.000001  (-0.000745 -0.000501  0.000106)
 13:    262.52   0.000012    0.06  0.000015  (-0.000685 -0.002430 -0.002881)
 14:    283.96   0.000021    0.11  0.000023  ( 0.001883 -0.000356 -0.004444)
 15:    299.07   0.000016    0.08  0.000017  (-0.001116  0.003924  0.000378)
 16:    323.22   0.000032    0.16  0.000031  (-0.000003 -0.004990  0.002456)
 17:    354.93   0.000051    0.26  0.000045  (-0.005363  0.003480  0.002027)
 18:    405.81   0.000104    0.52  0.000080  (-0.000564  0.006587 -0.006003)
 19:    442.56   0.000012    0.06  0.000009  ( 0.001767  0.002026  0.001196)
 20:    485.38   0.000088    0.44  0.000056  ( 0.006745 -0.003185  0.000878)
 21:    500.13   0.000244    1.23  0.000152  (-0.000868 -0.008731 -0.008679)
 22:    628.21   0.000192    0.97  0.000095  (-0.001768  0.008408 -0.004643)
 23:    674.23   0.012536   63.35  0.005802  ( 0.009439  0.057031 -0.049607)
 24:    680.55   0.001402    7.09  0.000643  (-0.014198  0.013618 -0.015999)
 25:    687.22   0.000540    2.73  0.000245  (-0.009136 -0.012105  0.003889)
 26:    773.25   0.009192   46.45  0.003710  (-0.007460 -0.046625  0.038473)
 27:    889.80   0.005614   28.37  0.001969  ( 0.008050  0.035516 -0.025353)
 28:    914.71   0.000665    3.36  0.000227  ( 0.009193 -0.010974 -0.004676)
 29:    915.71   0.000237    1.20  0.000081  (-0.001252  0.001414  0.008781)
 30:    920.23   0.000020    0.10  0.000007  (-0.000351 -0.002473 -0.000817)
 31:    939.47   0.000898    4.54  0.000298  ( 0.002240  0.005215 -0.016314)
 32:    942.55   0.000578    2.92  0.000191  ( 0.000715  0.011086 -0.008251)
 33:    966.60   0.000212    1.07  0.000068  ( 0.001007  0.001437  0.008087)
 34:    967.39   0.000252    1.27  0.000081  (-0.000457 -0.005640  0.007022)
 35:   1029.99   0.003245   16.40  0.000983  (-0.030823  0.005667  0.000984)
 36:   1043.94   0.000385    1.95  0.000115  ( 0.008609  0.003857  0.005112)
 37:   1098.96   0.001155    5.84  0.000328  (-0.000361 -0.011022 -0.014364)
 38:   1113.64   0.003847   19.44  0.001078  (-0.000860  0.019634  0.026299)
 39:   1133.32   0.000477    2.41  0.000131  (-0.010312 -0.004375  0.002437)
 40:   1167.09   0.011730   59.28  0.003137  ( 0.052898 -0.011628 -0.014251)
 41:   1172.20   0.002130   10.76  0.000567  (-0.023801  0.000424  0.000526)
 42:   1173.71   0.007393   37.36  0.001966  (-0.028818  0.028221 -0.018405)
 43:   1195.04   0.001263    6.38  0.000330  (-0.017819 -0.003408 -0.000783)
 44:   1218.21   0.036284  183.37  0.009295  ( 0.096201 -0.006321  0.000444)
 45:   1272.34   0.000098    0.50  0.000024  (-0.001650  0.004489  0.001115)
 46:   1340.90   0.011562   58.43  0.002691  (-0.049681  0.010657  0.010444)
 47:   1348.26   0.000136    0.69  0.000031  (-0.003315 -0.000415  0.004507)
 48:   1352.86   0.002779   14.05  0.000641  (-0.025136 -0.000331  0.003027)
 49:   1371.40   0.000493    2.49  0.000112  (-0.003572 -0.009498 -0.003020)
 50:   1390.58   0.003231   16.33  0.000725  (-0.021666 -0.015352 -0.004460)
 51:   1403.73   0.001096    5.54  0.000244  (-0.012025  0.008122 -0.005750)
 52:   1404.86   0.006577   33.24  0.001461  (-0.009033 -0.025509  0.026992)
 53:   1408.73   0.001355    6.85  0.000300  ( 0.004527 -0.002480 -0.016538)
 54:   1412.27   0.009738   49.21  0.002152  ( 0.031462  0.018691  0.028505)
 55:   1444.73   0.000137    0.69  0.000030  ( 0.001917  0.002877  0.004208)
 56:   1447.31   0.000035    0.18  0.000008  (-0.000501 -0.000491  0.002649)
 57:   1454.97   0.000611    3.09  0.000131  ( 0.010528  0.000305 -0.004492)
 58:   1456.19   0.001803    9.11  0.000386  ( 0.002196 -0.018162 -0.007190)
 59:   1460.52   0.003547   17.92  0.000758  ( 0.009442  0.018720  0.017840)
 60:   1464.64   0.002965   14.99  0.000632  ( 0.008171 -0.022408  0.007931)
 61:   1467.57   0.002450   12.38  0.000521  ( 0.007617 -0.014828 -0.015591)
 62:   1474.22   0.000316    1.60  0.000067  ( 0.006757  0.002329  0.003984)
 63:   1487.82   0.000207    1.05  0.000043  ( 0.004843  0.003460  0.002835)
 64:   1510.12   0.001460    7.38  0.000302  (-0.016817 -0.000399 -0.004335)
 65:   1648.25   0.029909  151.15  0.005663  (-0.074868  0.000673 -0.007551)
 66:   1653.76   0.008296   41.93  0.001566  ( 0.034488 -0.012376 -0.014930)
 67:   3070.57   0.002598   13.13  0.000264  (-0.006392 -0.007580  0.012874)
 68:   3071.75   0.002727   13.78  0.000277  (-0.004281 -0.013673  0.008471)
 69:   3073.95   0.001709    8.64  0.000173  ( 0.008492 -0.000288  0.010064)
 70:   3074.28   0.001416    7.16  0.000144  (-0.000070  0.007304  0.009508)
 71:   3127.26   0.001102    5.57  0.000110  (-0.005484  0.008940  0.000010)
 72:   3134.31   0.000720    3.64  0.000072  (-0.000733 -0.005394 -0.006485)
 73:   3175.41   0.001223    6.18  0.000120  (-0.000034 -0.003088  0.010521)
 74:   3175.69   0.000915    4.62  0.000090  (-0.000788 -0.004204  0.008460)
 75:   3177.92   0.004706   23.78  0.000462  ( 0.004728 -0.020442 -0.004683)
 76:   3178.72   0.004832   24.42  0.000474  (-0.003853 -0.015383 -0.014929)
 77:   3186.22   0.001980   10.00  0.000194  ( 0.010296 -0.002051  0.009147)
 78:   3188.33   0.001332    6.73  0.000130  ( 0.002588 -0.009193  0.006259)
 79:   3190.13   0.003144   15.89  0.000308  ( 0.016177 -0.003834 -0.005584)
 80:   3190.77   0.002165   10.94  0.000212  (-0.014445 -0.000396  0.001725)
 81:   3299.88   0.005092   25.73  0.000482  ( 0.021767 -0.002741  0.000407)
 82:   3310.85   0.013495   68.20  0.001272  ( 0.004602  0.021743  0.027893)
 83:   3318.04   0.001286    6.50  0.000121  ( 0.002169  0.006756  0.008403)

--------------------------
THERMOCHEMISTRY AT 298.15K
--------------------------

Temperature         ... 298.15 K
Pressure            ... 1.00 atm
Total Mass          ... 153.25 AMU

Throughout the following assumptions are being made:
  (1) The electronic state is orbitally nondegenerate
  (2) There are no thermally accessible electronically excited states
  (3) Hindered rotations indicated by low frequency modes are not
      treated as such but are treated as vibrations and this may
      cause some error
  (4) All equations used are the standard statistical mechanics
      equations for an ideal gas
  (5) All vibrations are strictly harmonic

freq.      11.42  E(vib)   ...       0.58
freq.      45.34  E(vib)   ...       0.53
freq.     116.42  E(vib)   ...       0.44
freq.     148.61  E(vib)   ...       0.41
freq.     163.53  E(vib)   ...       0.39
freq.     240.79  E(vib)   ...       0.31
freq.     248.65  E(vib)   ...       0.31
freq.     262.52  E(vib)   ...       0.29
freq.     283.96  E(vib)   ...       0.28
freq.     299.07  E(vib)   ...       0.26
freq.     323.22  E(vib)   ...       0.25
freq.     354.93  E(vib)   ...       0.22
freq.     405.81  E(vib)   ...       0.19
freq.     442.56  E(vib)   ...       0.17
freq.     485.38  E(vib)   ...       0.15
freq.     500.13  E(vib)   ...       0.14
freq.     628.21  E(vib)   ...       0.09
freq.     674.23  E(vib)   ...       0.08
freq.     680.55  E(vib)   ...       0.08
freq.     687.22  E(vib)   ...       0.07
freq.     773.25  E(vib)   ...       0.05
freq.     889.80  E(vib)   ...       0.04
freq.     914.71  E(vib)   ...       0.03
freq.     915.71  E(vib)   ...       0.03
freq.     920.23  E(vib)   ...       0.03
freq.     939.47  E(vib)   ...       0.03
freq.     942.55  E(vib)   ...       0.03
freq.     966.60  E(vib)   ...       0.03
freq.     967.39  E(vib)   ...       0.03
freq.    1029.99  E(vib)   ...       0.02
freq.    1043.94  E(vib)   ...       0.02
freq.    1098.96  E(vib)   ...       0.02
freq.    1113.64  E(vib)   ...       0.01
freq.    1133.32  E(vib)   ...       0.01
freq.    1167.09  E(vib)   ...       0.01
freq.    1172.20  E(vib)   ...       0.01
freq.    1173.71  E(vib)   ...       0.01
freq.    1195.04  E(vib)   ...       0.01
freq.    1218.21  E(vib)   ...       0.01
freq.    1272.34  E(vib)   ...       0.01
freq.    1340.90  E(vib)   ...       0.01
freq.    1348.26  E(vib)   ...       0.01
freq.    1352.86  E(vib)   ...       0.01
freq.    1371.40  E(vib)   ...       0.01
freq.    1390.58  E(vib)   ...       0.00
freq.    1403.73  E(vib)   ...       0.00
freq.    1404.86  E(vib)   ...       0.00
freq.    1408.73  E(vib)   ...       0.00
freq.    1412.27  E(vib)   ...       0.00
freq.    1444.73  E(vib)   ...       0.00
freq.    1447.31  E(vib)   ...       0.00
freq.    1454.97  E(vib)   ...       0.00
freq.    1456.19  E(vib)   ...       0.00
freq.    1460.52  E(vib)   ...       0.00
freq.    1464.64  E(vib)   ...       0.00
freq.    1467.57  E(vib)   ...       0.00
freq.    1474.22  E(vib)   ...       0.00
freq.    1487.82  E(vib)   ...       0.00
freq.    1510.12  E(vib)   ...       0.00
freq.    1648.25  E(vib)   ...       0.00
freq.    1653.76  E(vib)   ...       0.00
freq.    3070.57  E(vib)   ...       0.00
freq.    3071.75  E(vib)   ...       0.00
freq.    3073.95  E(vib)   ...       0.00
freq.    3074.28  E(vib)   ...       0.00
freq.    3127.26  E(vib)   ...       0.00
freq.    3134.31  E(vib)   ...       0.00
freq.    3175.41  E(vib)   ...       0.00
freq.    3175.69  E(vib)   ...       0.00
freq.    3177.92  E(vib)   ...       0.00
freq.    3178.72  E(vib)   ...       0.00
freq.    3186.22  E(vib)   ...       0.00
freq.    3188.33  E(vib)   ...       0.00
freq.    3190.13  E(vib)   ...       0.00
freq.    3190.77  E(vib)   ...       0.00
freq.    3299.88  E(vib)   ...       0.00
freq.    3310.85  E(vib)   ...       0.00
freq.    3318.04  E(vib)   ...       0.00

------------
INNER ENERGY
------------

The inner energy is: U= E(el) + E(ZPE) + E(vib) + E(rot) + E(trans)
    E(el)   - is the total energy from the electronic structure calculation
              = E(kin-el) + E(nuc-el) + E(el-el) + E(nuc-nuc)
    E(ZPE)  - the the zero temperature vibrational energy from the frequency calculation
    E(vib)  - the the finite temperature correction to E(ZPE) due to population
              of excited vibrational states
    E(rot)  - is the rotational thermal energy
    E(trans)- is the translational thermal energy

Summary of contributions to the inner energy U:
Electronic energy                ...   -462.13607076 Eh
Zero point energy                ...      0.25560698 Eh     160.40 kcal/mol
Thermal vibrational correction   ...      0.00918124 Eh       5.76 kcal/mol
Thermal rotational correction    ...      0.00141627 Eh       0.89 kcal/mol
Thermal translational correction ...      0.00141627 Eh       0.89 kcal/mol
-----------------------------------------------------------------------
Total thermal energy                   -461.86845000 Eh

Summary of corrections to the electronic energy:
(perhaps to be used in another calculation)
Total thermal correction                  0.01201378 Eh       7.54 kcal/mol
Non-thermal (ZPE) correction              0.25560698 Eh     160.40 kcal/mol
-----------------------------------------------------------------------
Total correction                          0.26762076 Eh     167.93 kcal/mol

--------
ENTHALPY
--------

The enthalpy is H = U + kB*T
                kB is Boltzmann's constant
Total free energy                 ...   -461.86845000 Eh
Thermal Enthalpy correction       ...      0.00094421 Eh       0.59 kcal/mol
-----------------------------------------------------------------------
Total Enthalpy                    ...   -461.86750579 Eh

Note: Only C1 symmetry has been detected, increase convergence thresholds
      if your molecule has a higher symmetry. Symmetry factor of 1.0 is
      used for the rotational entropy correction.

Note: Rotational entropy computed according to Herzberg
Infrared and Raman Spectra, Chapter V,1, Van Nostrand Reinhold, 1945
Point Group:  C1, Symmetry Number:   1
Rotational constants in cm-1:     0.080455     0.019312     0.018325

Vibrational entropy computed according to the QRRHO of S. Grimme
Chem.Eur.J. 2012 18 9955

-------
ENTROPY
-------

The entropy contributions are T*S = T*(S(el)+S(vib)+S(rot)+S(trans))
     S(el)   - electronic entropy
     S(vib)  - vibrational entropy
     S(rot)  - rotational entropy

                             ****ORCA TERMINATED NORMALLY****
TOTAL RUN TIME: 0 days 1 hours 37 minutes 8 seconds 465 msec
