                         Program Version 5.0.4 -  RELEASE  -
|  1> # ORCA 5.0.4 - /users/bwb16179/postgrad/2024_03/DFT_Crest_Conformers/Opt/prot/4_prot_aq_6.inp # write input file
|  2> # Basic Mode
|  3> #
|  4> ! Opt Freq wB97X Def2-SVP D4 SlowConv TightSCF Defgrid2 Def2/J RIJCOSX CPCM(Water)
|  5>
|  6>
|  7>
|  8> %maxcore 4500
|  9>
| 10> %geom
| 11> Maxiter 150
| 12> END
| 13>
| 14> * xyzfile 1 1 4_prot_aq_6.xyz
| 15>
| 16>                          ****END OF INPUT****
 Total Charge           Charge          ....    1
 Multiplicity           Mult            ....    1
 Number of Electrons    NEL             ....   84
Dispersion correction           -0.004071605
FINAL SINGLE POINT ENERGY      -462.131638503291
Dispersion correction            ... Starting D4
Dispersion correction           -0.004052127
FINAL SINGLE POINT ENERGY      -462.135111995487
Dispersion correction            ... Starting D4
Dispersion correction           -0.004048751
FINAL SINGLE POINT ENERGY      -462.135330911817
Dispersion correction            ... Starting D4
FINAL SINGLE POINT ENERGY      -462.135422586359
Dispersion correction           -0.004047191
FINAL SINGLE POINT ENERGY      -462.135435915313
Dispersion correction            ... Starting D4
Dispersion correction           -0.004047360
FINAL SINGLE POINT ENERGY      -462.135439992678
Dispersion correction            ... Starting D4
                    ***********************HURRAY********************

CARTESIAN COORDINATES (ANGSTROEM)
---------------------------------
  N     -1.084073   -0.162415    0.359248
  C     -0.002718    0.131662   -0.361094
  N      1.079083   -0.032777    0.398145
  H     -0.004117    0.455022   -1.401765
  C      0.677835   -0.450393    1.646755
  C     -0.681294   -0.527591    1.623617
  C     -2.490835   -0.054454   -0.090574
  C      2.487578    0.125812   -0.030508
  C     -2.914621    1.407587   -0.131653
  H     -3.061357   -0.576793    0.691479
  C     -2.688923   -0.775254   -1.415601
  C      2.651998    1.366892   -0.893659
  C      2.968760   -1.147985   -0.712472
  H      3.040156    0.267076    0.910245
  H      1.393955   -0.653914    2.440677
  H     -1.396451   -0.807340    2.394787
  H     -3.982805    1.470446   -0.385236
  H     -2.346061    1.959571   -0.896834
  H     -2.760802    1.892216    0.843853
  H     -2.157853   -0.266471   -2.235595
  H     -3.759862   -0.779320   -1.663956
  H     -2.341374   -1.817050   -1.357012
  H      2.148799    1.253501   -1.866693
  H      3.721914    1.524552   -1.090036
  H      2.256162    2.259865   -0.388097
  H      2.843574   -2.021160   -0.055279
  H      4.035730   -1.049394   -0.959594
  H      2.411671   -1.323555   -1.646436

 Multiplicity           Mult            ....    1
 Number of Electrons    NEL             ....   84
 Basis Dimension        Dim             ....  239

ORBITAL ENERGIES
----------------

  NO   OCC          E(Eh)            E(eV)
   0   2.0000     -14.510203      -394.8427
   1   2.0000     -14.509797      -394.8316
   2   2.0000     -10.383354      -282.5454
   3   2.0000     -10.337696      -281.3030
   4   2.0000     -10.337454      -281.2964
   5   2.0000     -10.334396      -281.2132
   6   2.0000     -10.333732      -281.1951
   7   2.0000     -10.276174      -279.6289
   8   2.0000     -10.275539      -279.6116
   9   2.0000     -10.274472      -279.5826
  10   2.0000     -10.274391      -279.5804
  11   2.0000      -1.215731       -33.0817
  12   2.0000      -1.095369       -29.8065
  13   2.0000      -0.966324       -26.2950
  14   2.0000      -0.916315       -24.9342
  15   2.0000      -0.915032       -24.8993
  16   2.0000      -0.823481       -22.4080
  17   2.0000      -0.821968       -22.3669
  18   2.0000      -0.807030       -21.9604
  19   2.0000      -0.775770       -21.1098
  20   2.0000      -0.731535       -19.9061
  21   2.0000      -0.725076       -19.7303
  22   2.0000      -0.650135       -17.6911
  23   2.0000      -0.630072       -17.1451
  24   2.0000      -0.604519       -16.4498
  25   2.0000      -0.600277       -16.3344
  26   2.0000      -0.586567       -15.9613
  27   2.0000      -0.580164       -15.7871
  28   2.0000      -0.563413       -15.3312
  29   2.0000      -0.560298       -15.2465
  30   2.0000      -0.550678       -14.9847
  31   2.0000      -0.519053       -14.1242
  32   2.0000      -0.501875       -13.6567
  33   2.0000      -0.497680       -13.5426
  34   2.0000      -0.496549       -13.5118
  35   2.0000      -0.492261       -13.3951
  36   2.0000      -0.473412       -12.8822
  37   2.0000      -0.463879       -12.6228
  38   2.0000      -0.458279       -12.4704
  39   2.0000      -0.457487       -12.4488
  40   2.0000      -0.415070       -11.2946
  41   2.0000      -0.374354       -10.1867
  42   0.0000       0.058712         1.5976
  43   0.0000       0.095939         2.6106
  44   0.0000       0.136147         3.7047
  45   0.0000       0.148895         4.0516
  46   0.0000       0.154618         4.2074

MULLIKEN ATOMIC CHARGES
-----------------------
   0 N :   -0.194522
   1 C :    0.213776
   2 N :   -0.195509
   3 H :    0.137435
   4 C :    0.062965
   5 C :    0.064181
   6 C :   -0.043956
   7 C :   -0.042485
   8 C :   -0.003286
   9 H :    0.076182
  10 C :   -0.028940
  11 C :   -0.037046
  12 C :    0.001559
  13 H :    0.076283
  14 H :    0.105643
  15 H :    0.106261
  16 H :    0.062795
  17 H :    0.049851
  18 H :    0.055539
  19 H :    0.054185
  20 H :    0.065505
  21 H :    0.061245
  22 H :    0.056139
  23 H :    0.066991
  24 H :    0.062993
  25 H :    0.054614
  26 H :    0.062707
  27 H :    0.048896
Sum of atomic charges:    1.0000000

LOEWDIN ATOMIC CHARGES
----------------------
   0 N :    0.099758
   1 C :    0.122183
   2 N :    0.100249
   3 H :    0.066621
   4 C :    0.017902
   5 C :    0.018958
   6 C :    0.043549
   7 C :    0.043583
   8 C :   -0.054129
   9 H :    0.049044
  10 C :   -0.055794
  11 C :   -0.056288
  12 C :   -0.053469
  13 H :    0.048840
  14 H :    0.062503
  15 H :    0.062601
  16 H :    0.044977
  17 H :    0.035773
  18 H :    0.037750
  19 H :    0.036499
  20 H :    0.047096
  21 H :    0.039273
  22 H :    0.036778
  23 H :    0.048145
  24 H :    0.039692
  25 H :    0.037316
  26 H :    0.044858
  27 H :    0.035731

  Mayer bond orders larger than 0.100000
B(  0-N ,  1-C ) :   1.3489 B(  0-N ,  5-C ) :   1.1799 B(  0-N ,  6-C ) :   0.8415
B(  1-C ,  2-N ) :   1.3523 B(  1-C ,  3-H ) :   0.9674 B(  2-N ,  4-C ) :   1.1786
B(  2-N ,  7-C ) :   0.8429 B(  4-C ,  5-C ) :   1.5879 B(  4-C , 14-H ) :   0.9856
B(  5-C , 15-H ) :   0.9853 B(  6-C ,  8-C ) :   1.0706 B(  6-C ,  9-H ) :   0.9402
B(  6-C , 10-C ) :   1.0716 B(  7-C , 11-C ) :   1.0731 B(  7-C , 12-C ) :   1.0693
B(  7-C , 13-H ) :   0.9406 B(  8-C , 16-H ) :   0.9709 B(  8-C , 17-H ) :   0.9624
B(  8-C , 18-H ) :   0.9665 B( 10-C , 19-H ) :   0.9627 B( 10-C , 20-H ) :   0.9677
B( 10-C , 21-H ) :   0.9684 B( 11-C , 22-H ) :   0.9619 B( 11-C , 23-H ) :   0.9660
B( 11-C , 24-H ) :   0.9685 B( 12-C , 25-H ) :   0.9660 B( 12-C , 26-H ) :   0.9713
B( 12-C , 27-H ) :   0.9624

Dispersion correction           -0.004047384
FINAL SINGLE POINT ENERGY      -462.135441052828

DIPOLE MOMENT
-------------
                                X             Y             Z
Electronic contribution:     -0.03036      -1.72489       6.44473
Nuclear contribution   :      0.03191       1.67738      -6.19755
                        -----------------------------------------
Total Dipole Moment    :      0.00155      -0.04751       0.24718
                        -----------------------------------------
Magnitude (a.u.)       :      0.25171
Magnitude (Debye)      :      0.63980

Dispersion correction in the Hessian             ... Starting D4

VIBRATIONAL FREQUENCIES
-----------------------

Scaling factor for frequencies =  1.000000000  (already applied!)

   0:         0.00 cm**-1
   1:         0.00 cm**-1
   2:         0.00 cm**-1
   3:         0.00 cm**-1
   4:         0.00 cm**-1
   5:         0.00 cm**-1
   6:       -37.09 cm**-1 ***imaginary mode***
   7:        38.74 cm**-1
   8:        93.26 cm**-1
   9:       135.00 cm**-1
  10:       159.93 cm**-1
  11:       219.55 cm**-1
  12:       250.04 cm**-1
  13:       256.39 cm**-1
  14:       295.37 cm**-1
  15:       307.04 cm**-1
  16:       317.73 cm**-1
  17:       339.38 cm**-1
  18:       399.40 cm**-1
  19:       448.82 cm**-1
  20:       478.24 cm**-1
  21:       517.48 cm**-1
  22:       605.95 cm**-1
  23:       679.83 cm**-1
  24:       682.44 cm**-1
  25:       698.70 cm**-1
  26:       768.62 cm**-1
  27:       896.40 cm**-1
  28:       911.51 cm**-1
  29:       915.06 cm**-1
  30:       918.58 cm**-1
  31:       937.04 cm**-1
  32:       948.41 cm**-1
  33:       961.80 cm**-1
  34:       967.57 cm**-1
  35:      1026.25 cm**-1
  36:      1036.25 cm**-1
  37:      1101.39 cm**-1
  38:      1126.78 cm**-1
  39:      1136.88 cm**-1
  40:      1168.85 cm**-1
  41:      1172.77 cm**-1
  42:      1178.98 cm**-1
  43:      1192.42 cm**-1
  44:      1216.77 cm**-1
  45:      1270.67 cm**-1
  46:      1339.39 cm**-1
  47:      1347.62 cm**-1
  48:      1354.16 cm**-1
  49:      1368.77 cm**-1
  50:      1395.93 cm**-1
  51:      1402.10 cm**-1
  52:      1404.81 cm**-1
  53:      1406.32 cm**-1
  54:      1411.56 cm**-1
  55:      1441.95 cm**-1
  56:      1447.16 cm**-1
  57:      1451.10 cm**-1
  58:      1456.38 cm**-1
  59:      1459.64 cm**-1
  60:      1463.92 cm**-1
  61:      1471.37 cm**-1
  62:      1475.59 cm**-1
  63:      1487.25 cm**-1
  64:      1512.47 cm**-1
  65:      1645.80 cm**-1
  66:      1647.24 cm**-1
  67:      3070.63 cm**-1
  68:      3070.85 cm**-1
  69:      3075.18 cm**-1
  70:      3075.58 cm**-1
  71:      3134.41 cm**-1
  72:      3139.07 cm**-1
  73:      3175.20 cm**-1
  74:      3175.79 cm**-1
  75:      3178.67 cm**-1
  76:      3179.37 cm**-1
  77:      3187.08 cm**-1
  78:      3187.47 cm**-1
  79:      3190.59 cm**-1
  80:      3191.14 cm**-1
  81:      3301.83 cm**-1
  82:      3305.82 cm**-1
  83:      3319.79 cm**-1

IR SPECTRUM
-----------

 Mode   freq       eps      Int      T**2         TX        TY        TZ
       cm**-1   L/(mol*cm) km/mol    a.u.
----------------------------------------------------------------------------
  7:     38.74   0.000031    0.16  0.000253  ( 0.002825  0.013729  0.007549)
  8:     93.26   0.000040    0.20  0.000133  ( 0.004346 -0.010268 -0.002963)
  9:    135.00   0.000009    0.05  0.000021  ( 0.000089 -0.001665  0.004297)
 10:    159.93   0.000000    0.00  0.000000  (-0.000074  0.000193  0.000205)
 11:    219.55   0.000009    0.05  0.000013  ( 0.003082  0.000967 -0.001549)
 12:    250.04   0.000005    0.03  0.000007  (-0.001436  0.001350  0.001701)
 13:    256.39   0.000034    0.17  0.000041  ( 0.003080  0.000474  0.005591)
 14:    295.37   0.000022    0.11  0.000023  ( 0.002554  0.002466 -0.003269)
 15:    307.04   0.000110    0.56  0.000112  (-0.010338  0.002182  0.000693)
 16:    317.73   0.000025    0.13  0.000024  ( 0.000931 -0.000649 -0.004807)
 17:    339.38   0.000025    0.13  0.000023  ( 0.004075  0.002607 -0.000126)
 18:    399.40   0.000102    0.52  0.000080  ( 0.002780  0.008324  0.001686)
 19:    448.82   0.000028    0.14  0.000020  (-0.000446 -0.001896  0.003994)
 20:    478.24   0.000003    0.01  0.000002  ( 0.001015  0.000159 -0.000902)
 21:    517.48   0.000194    0.98  0.000117  (-0.010239 -0.003246 -0.001221)
 22:    605.95   0.000478    2.42  0.000246  ( 0.000436  0.003624 -0.015258)
 23:    679.83   0.002152   10.87  0.000988  ( 0.000558  0.028806  0.012552)
 24:    682.44   0.012585   63.60  0.005755  (-0.003000 -0.072819 -0.021055)
 25:    698.70   0.000909    4.59  0.000406  (-0.012329  0.015502  0.003687)
 26:    768.62   0.009121   46.09  0.003703  ( 0.006117 -0.057908 -0.017676)
 27:    896.40   0.005114   25.85  0.001780  ( 0.005764 -0.039665 -0.013187)
 28:    911.51   0.000225    1.14  0.000077  (-0.001380  0.000021 -0.008671)
 29:    915.06   0.000052    0.26  0.000018  (-0.000936  0.003176  0.002617)
 30:    918.58   0.000545    2.76  0.000185  (-0.012538 -0.005290 -0.000224)
 31:    937.04   0.000778    3.93  0.000259  ( 0.001380 -0.015993  0.001188)
 32:    948.41   0.000628    3.17  0.000207  ( 0.000399 -0.012322 -0.007391)
 33:    961.80   0.000202    1.02  0.000066  (-0.001319 -0.007791  0.001776)
 34:    967.57   0.000153    0.77  0.000049  (-0.000561 -0.005961 -0.003673)
 35:   1026.25   0.003423   17.30  0.001041  ( 0.032223  0.001441  0.000723)
 36:   1036.25   0.000117    0.59  0.000035  (-0.002196 -0.001579  0.005293)
 37:   1101.39   0.003742   18.91  0.001060  ( 0.000635 -0.009333  0.031188)
 38:   1126.78   0.000156    0.79  0.000043  (-0.004708  0.001378  0.004376)
 39:   1136.88   0.000359    1.81  0.000098  ( 0.001688 -0.002349  0.009490)
 40:   1168.85   0.018119   91.57  0.004837  ( 0.069404  0.003350  0.003055)
 41:   1172.77   0.003400   17.18  0.000905  ( 0.021188  0.021248  0.002075)
 42:   1178.98   0.002401   12.14  0.000636  ( 0.003081 -0.023865 -0.007521)
 43:   1192.42   0.001805    9.12  0.000472  ( 0.010925  0.002124 -0.018669)
 44:   1216.77   0.031558  159.48  0.008094  ( 0.089912  0.000554  0.003009)
 45:   1270.67   0.008566   43.29  0.002104  (-0.045821  0.002045 -0.000066)
 46:   1339.39   0.000168    0.85  0.000039  ( 0.005966 -0.000762  0.001695)
 47:   1347.62   0.000086    0.43  0.000020  (-0.002817 -0.001929 -0.002855)
 48:   1354.16   0.000160    0.81  0.000037  (-0.005798 -0.001742  0.000431)
 49:   1368.77   0.008038   40.62  0.001833  (-0.042408  0.004146  0.004117)
 50:   1395.93   0.002772   14.01  0.000620  ( 0.001316  0.000257  0.024856)
 51:   1402.10   0.004661   23.56  0.001037  (-0.006636  0.031517 -0.000282)
 52:   1404.81   0.003804   19.23  0.000845  ( 0.000430  0.029060  0.000668)
 53:   1406.32   0.005113   25.84  0.001135  ( 0.014113  0.002083 -0.030513)
 54:   1411.56   0.004195   21.20  0.000927  (-0.012543  0.006020 -0.027089)
 55:   1441.95   0.000017    0.08  0.000004  (-0.000279  0.001003 -0.001592)
 56:   1447.16   0.000048    0.24  0.000010  (-0.000682 -0.001517 -0.002760)
 57:   1451.10   0.000452    2.29  0.000097  (-0.000771 -0.007874  0.005887)
 58:   1456.38   0.003886   19.64  0.000833  ( 0.006782 -0.001287  0.028017)
 59:   1459.64   0.003578   18.08  0.000765  (-0.018748 -0.008849 -0.018306)
 60:   1463.92   0.004372   22.09  0.000932  ( 0.023803  0.007338 -0.017648)
 61:   1471.37   0.002362   11.93  0.000501  (-0.003695 -0.013351  0.017578)
 62:   1475.59   0.000652    3.30  0.000138  (-0.002230  0.009182 -0.006977)
 63:   1487.25   0.000602    3.04  0.000126  ( 0.011034 -0.001621  0.001359)
 64:   1512.47   0.000402    2.03  0.000083  ( 0.000921 -0.002409  0.008732)
 65:   1645.80   0.015941   80.56  0.003023  ( 0.053790  0.003343 -0.010865)
 66:   1647.24   0.014126   71.39  0.002676  (-0.050136  0.004349 -0.011986)
 67:   3070.63   0.002733   13.81  0.000278  (-0.004234  0.015356  0.004900)
 68:   3070.85   0.002050   10.36  0.000208  (-0.002646  0.014134  0.001266)
 69:   3075.18   0.001777    8.98  0.000180  ( 0.000620  0.003811  0.012862)
 70:   3075.58   0.001723    8.71  0.000175  (-0.000133  0.008634 -0.010011)
 71:   3134.41   0.000764    3.86  0.000076  (-0.005263 -0.001995 -0.006660)
 72:   3139.07   0.000678    3.43  0.000067  (-0.005231 -0.003888  0.004991)
 73:   3175.20   0.000997    5.04  0.000098  ( 0.003448 -0.008224  0.004302)
 74:   3175.79   0.001140    5.76  0.000112  (-0.003724  0.005049  0.008525)
 75:   3178.67   0.004916   24.84  0.000483  ( 0.011143  0.003651  0.018578)
 76:   3179.37   0.005113   25.84  0.000502  ( 0.011847  0.011451 -0.015179)
 77:   3187.08   0.001991   10.06  0.000195  ( 0.009806  0.007673  0.006315)
 78:   3187.47   0.001933    9.77  0.000189  ( 0.009238  0.009783 -0.002866)
 79:   3190.59   0.002524   12.76  0.000247  (-0.013996  0.006767 -0.002280)
 80:   3191.14   0.002199   11.11  0.000215  ( 0.013409 -0.003885 -0.004489)
 81:   3301.83   0.005657   28.59  0.000535  ( 0.023096  0.001038  0.000313)
 82:   3305.82   0.011872   60.00  0.001121  ( 0.000228  0.009990 -0.031951)
 83:   3319.79   0.002662   13.45  0.000250  (-0.000269  0.004613 -0.015127)

--------------------------
THERMOCHEMISTRY AT 298.15K
--------------------------

Temperature         ... 298.15 K
Pressure            ... 1.00 atm
Total Mass          ... 153.25 AMU

Throughout the following assumptions are being made:
  (1) The electronic state is orbitally nondegenerate
  (2) There are no thermally accessible electronically excited states
  (3) Hindered rotations indicated by low frequency modes are not
      treated as such but are treated as vibrations and this may
      cause some error
  (4) All equations used are the standard statistical mechanics
      equations for an ideal gas
  (5) All vibrations are strictly harmonic

freq.      38.74  E(vib)   ...       0.54
freq.      93.26  E(vib)   ...       0.47
freq.     135.00  E(vib)   ...       0.42
freq.     159.93  E(vib)   ...       0.39
freq.     219.55  E(vib)   ...       0.33
freq.     250.04  E(vib)   ...       0.31
freq.     256.39  E(vib)   ...       0.30
freq.     295.37  E(vib)   ...       0.27
freq.     307.04  E(vib)   ...       0.26
freq.     317.73  E(vib)   ...       0.25
freq.     339.38  E(vib)   ...       0.23
freq.     399.40  E(vib)   ...       0.19
freq.     448.82  E(vib)   ...       0.17
freq.     478.24  E(vib)   ...       0.15
freq.     517.48  E(vib)   ...       0.13
freq.     605.95  E(vib)   ...       0.10
freq.     679.83  E(vib)   ...       0.08
freq.     682.44  E(vib)   ...       0.08
freq.     698.70  E(vib)   ...       0.07
freq.     768.62  E(vib)   ...       0.06
freq.     896.40  E(vib)   ...       0.03
freq.     911.51  E(vib)   ...       0.03
freq.     915.06  E(vib)   ...       0.03
freq.     918.58  E(vib)   ...       0.03
freq.     937.04  E(vib)   ...       0.03
freq.     948.41  E(vib)   ...       0.03
freq.     961.80  E(vib)   ...       0.03
freq.     967.57  E(vib)   ...       0.03
freq.    1026.25  E(vib)   ...       0.02
freq.    1036.25  E(vib)   ...       0.02
freq.    1101.39  E(vib)   ...       0.02
freq.    1126.78  E(vib)   ...       0.01
freq.    1136.88  E(vib)   ...       0.01
freq.    1168.85  E(vib)   ...       0.01
freq.    1172.77  E(vib)   ...       0.01
freq.    1178.98  E(vib)   ...       0.01
freq.    1192.42  E(vib)   ...       0.01
freq.    1216.77  E(vib)   ...       0.01
freq.    1270.67  E(vib)   ...       0.01
freq.    1339.39  E(vib)   ...       0.01
freq.    1347.62  E(vib)   ...       0.01
freq.    1354.16  E(vib)   ...       0.01
freq.    1368.77  E(vib)   ...       0.01
freq.    1395.93  E(vib)   ...       0.00
freq.    1402.10  E(vib)   ...       0.00
freq.    1404.81  E(vib)   ...       0.00
freq.    1406.32  E(vib)   ...       0.00
freq.    1411.56  E(vib)   ...       0.00
freq.    1441.95  E(vib)   ...       0.00
freq.    1447.16  E(vib)   ...       0.00
freq.    1451.10  E(vib)   ...       0.00
freq.    1456.38  E(vib)   ...       0.00
freq.    1459.64  E(vib)   ...       0.00
freq.    1463.92  E(vib)   ...       0.00
freq.    1471.37  E(vib)   ...       0.00
freq.    1475.59  E(vib)   ...       0.00
freq.    1487.25  E(vib)   ...       0.00
freq.    1512.47  E(vib)   ...       0.00
freq.    1645.80  E(vib)   ...       0.00
freq.    1647.24  E(vib)   ...       0.00
freq.    3070.63  E(vib)   ...       0.00
freq.    3070.85  E(vib)   ...       0.00
freq.    3075.18  E(vib)   ...       0.00
freq.    3075.58  E(vib)   ...       0.00
freq.    3134.41  E(vib)   ...       0.00
freq.    3139.07  E(vib)   ...       0.00
freq.    3175.20  E(vib)   ...       0.00
freq.    3175.79  E(vib)   ...       0.00
freq.    3178.67  E(vib)   ...       0.00
freq.    3179.37  E(vib)   ...       0.00
freq.    3187.08  E(vib)   ...       0.00
freq.    3187.47  E(vib)   ...       0.00
freq.    3190.59  E(vib)   ...       0.00
freq.    3191.14  E(vib)   ...       0.00
freq.    3301.83  E(vib)   ...       0.00
freq.    3305.82  E(vib)   ...       0.00
freq.    3319.79  E(vib)   ...       0.00

------------
INNER ENERGY
------------

The inner energy is: U= E(el) + E(ZPE) + E(vib) + E(rot) + E(trans)
    E(el)   - is the total energy from the electronic structure calculation
              = E(kin-el) + E(nuc-el) + E(el-el) + E(nuc-nuc)
    E(ZPE)  - the the zero temperature vibrational energy from the frequency calculation
    E(vib)  - the the finite temperature correction to E(ZPE) due to population
              of excited vibrational states
    E(rot)  - is the rotational thermal energy
    E(trans)- is the translational thermal energy

Summary of contributions to the inner energy U:
Electronic energy                ...   -462.13544105 Eh
Zero point energy                ...      0.25544027 Eh     160.29 kcal/mol
Thermal vibrational correction   ...      0.00838650 Eh       5.26 kcal/mol
Thermal rotational correction    ...      0.00141627 Eh       0.89 kcal/mol
Thermal translational correction ...      0.00141627 Eh       0.89 kcal/mol
-----------------------------------------------------------------------
Total thermal energy                   -461.86878174 Eh

Summary of corrections to the electronic energy:
(perhaps to be used in another calculation)
Total thermal correction                  0.01121904 Eh       7.04 kcal/mol
Non-thermal (ZPE) correction              0.25544027 Eh     160.29 kcal/mol
-----------------------------------------------------------------------
Total correction                          0.26665931 Eh     167.33 kcal/mol

--------
ENTHALPY
--------

The enthalpy is H = U + kB*T
                kB is Boltzmann's constant
Total free energy                 ...   -461.86878174 Eh
Thermal Enthalpy correction       ...      0.00094421 Eh       0.59 kcal/mol
-----------------------------------------------------------------------
Total Enthalpy                    ...   -461.86783753 Eh

Note: Only C1 symmetry has been detected, increase convergence thresholds
      if your molecule has a higher symmetry. Symmetry factor of 1.0 is
      used for the rotational entropy correction.

Note: Rotational entropy computed according to Herzberg
Infrared and Raman Spectra, Chapter V,1, Van Nostrand Reinhold, 1945
Point Group:  C1, Symmetry Number:   1
Rotational constants in cm-1:     0.066995     0.020984     0.019731

Vibrational entropy computed according to the QRRHO of S. Grimme
Chem.Eur.J. 2012 18 9955

-------
ENTROPY
-------

The entropy contributions are T*S = T*(S(el)+S(vib)+S(rot)+S(trans))
     S(el)   - electronic entropy
     S(vib)  - vibrational entropy
     S(rot)  - rotational entropy
     S(trans)- translational entropy

                             ****ORCA TERMINATED NORMALLY****
TOTAL RUN TIME: 0 days 1 hours 5 minutes 58 seconds 405 msec
