                         Program Version 5.0.4 -  RELEASE  -
|  1> # ORCA 5.0.4 - /users/bwb16179/postgrad/2024_03/DFT_Crest_Conformers/Opt/prot/4_prot_aq_11.inp # write input file
|  2> # Basic Mode
|  3> #
|  4> ! Opt Freq wB97X Def2-SVP D4 SlowConv TightSCF Defgrid2 Def2/J RIJCOSX CPCM(Water)
|  5>
|  6>
|  7>
|  8> %maxcore 4500
|  9>
| 10> %geom
| 11> Maxiter 150
| 12> END
| 13>
| 14> * xyzfile 1 1 4_prot_aq_11.xyz
| 15>
| 16>                          ****END OF INPUT****
 Total Charge           Charge          ....    1
 Multiplicity           Mult            ....    1
 Number of Electrons    NEL             ....   84
Dispersion correction           -0.004044497
FINAL SINGLE POINT ENERGY      -462.129279696510
Dispersion correction            ... Starting D4
Dispersion correction           -0.004029905
FINAL SINGLE POINT ENERGY      -462.132712342966
Dispersion correction            ... Starting D4
Dispersion correction           -0.004026469
FINAL SINGLE POINT ENERGY      -462.132953435809
Dispersion correction            ... Starting D4
FINAL SINGLE POINT ENERGY      -462.133071239744
FINAL SINGLE POINT ENERGY      -462.133109640534
FINAL SINGLE POINT ENERGY      -462.133166539213
FINAL SINGLE POINT ENERGY      -462.133409961863
FINAL SINGLE POINT ENERGY      -462.133882552418
FINAL SINGLE POINT ENERGY      -462.134346732763
FINAL SINGLE POINT ENERGY      -462.134628892104
FINAL SINGLE POINT ENERGY      -462.135083691865
FINAL SINGLE POINT ENERGY      -462.135097744230
FINAL SINGLE POINT ENERGY      -462.135126635874
FINAL SINGLE POINT ENERGY      -462.135158466034
FINAL SINGLE POINT ENERGY      -462.135195631321
FINAL SINGLE POINT ENERGY      -462.135227798511
FINAL SINGLE POINT ENERGY      -462.135247325020
Dispersion correction           -0.004032125
FINAL SINGLE POINT ENERGY      -462.135258985040
Dispersion correction            ... Starting D4
Dispersion correction           -0.004032716
FINAL SINGLE POINT ENERGY      -462.135265310944
Dispersion correction            ... Starting D4
                    ***********************HURRAY********************

CARTESIAN COORDINATES (ANGSTROEM)
---------------------------------
  N     -1.079736   -0.371311    0.194158
  C     -0.023600    0.425849    0.040914
  N      1.069296   -0.324533   -0.087340
  H     -0.048882    1.513668    0.019188
  C      0.700307   -1.649903   -0.015731
  C     -0.647980   -1.679063    0.160327
  C     -2.500580    0.030354    0.314049
  C      2.467945    0.143481   -0.222601
  C     -2.629042    1.442671    0.858931
  H     -2.921086   -0.674876    1.047140
  C     -3.200189   -0.153754   -1.026714
  C      3.184648    0.016066    1.115710
  C      2.521280    1.552694   -0.787668
  H      2.920617   -0.549930   -0.947683
  H      1.428367   -2.455229   -0.094606
  H     -1.338159   -2.514588    0.262181
  H     -2.114783    1.552497    1.825126
  H     -3.695207    1.662054    1.010093
  H     -2.236041    2.189443    0.151282
  H     -3.119640   -1.191901   -1.381846
  H     -2.763667    0.515545   -1.784974
  H     -4.266697    0.090897   -0.918389
  H      3.105086   -1.004674    1.518243
  H      2.762092    0.720473    1.849574
  H      4.250681    0.249780    0.981220
  H      1.975935    1.627301   -1.740197
  H      3.572085    1.815826   -0.972636
  H      2.112790    2.289727   -0.078845

 Multiplicity           Mult            ....    1
 Number of Electrons    NEL             ....   84
 Basis Dimension        Dim             ....  239

ORBITAL ENERGIES
----------------

  NO   OCC          E(Eh)            E(eV)
   0   2.0000     -14.509763      -394.8307
   1   2.0000     -14.509717      -394.8295
   2   2.0000     -10.384466      -282.5757
   3   2.0000     -10.337641      -281.3015
   4   2.0000     -10.337591      -281.3002
   5   2.0000     -10.333959      -281.2013
   6   2.0000     -10.333380      -281.1856
   7   2.0000     -10.276887      -279.6483
   8   2.0000     -10.276854      -279.6474
   9   2.0000     -10.274373      -279.5799
  10   2.0000     -10.274340      -279.5790
  11   2.0000      -1.215326       -33.0707
  12   2.0000      -1.095031       -29.7973
  13   2.0000      -0.966080       -26.2884
  14   2.0000      -0.917984       -24.9796
  15   2.0000      -0.915237       -24.9049
  16   2.0000      -0.826402       -22.4875
  17   2.0000      -0.823483       -22.4081
  18   2.0000      -0.804908       -21.9026
  19   2.0000      -0.771058       -20.9816
  20   2.0000      -0.731822       -19.9139
  21   2.0000      -0.724563       -19.7164
  22   2.0000      -0.654630       -17.8134
  23   2.0000      -0.636244       -17.3131
  24   2.0000      -0.606029       -16.4909
  25   2.0000      -0.597677       -16.2636
  26   2.0000      -0.584140       -15.8953
  27   2.0000      -0.581868       -15.8334
  28   2.0000      -0.565244       -15.3811
  29   2.0000      -0.563118       -15.3232
  30   2.0000      -0.539539       -14.6816
  31   2.0000      -0.519150       -14.1268
  32   2.0000      -0.501336       -13.6420
  33   2.0000      -0.498087       -13.5536
  34   2.0000      -0.497198       -13.5294
  35   2.0000      -0.492120       -13.3913
  36   2.0000      -0.476884       -12.9767
  37   2.0000      -0.464490       -12.6394
  38   2.0000      -0.461881       -12.5684
  39   2.0000      -0.457804       -12.4575
  40   2.0000      -0.411398       -11.1947
  41   2.0000      -0.375747       -10.2246
  42   0.0000       0.061266         1.6671
  43   0.0000       0.092241         2.5100
  44   0.0000       0.137917         3.7529
  45   0.0000       0.149495         4.0680
  46   0.0000       0.159698         4.3456

MULLIKEN ATOMIC CHARGES
-----------------------
   0 N :   -0.200474
   1 C :    0.219018
   2 N :   -0.200664
   3 H :    0.129510
   4 C :    0.065847
   5 C :    0.066080
   6 C :   -0.032504
   7 C :   -0.032409
   8 C :   -0.044667
   9 H :    0.078029
  10 C :   -0.004917
  11 C :   -0.004508
  12 C :   -0.045570
  13 H :    0.078366
  14 H :    0.105300
  15 H :    0.105063
  16 H :    0.065065
  17 H :    0.068209
  18 H :    0.059199
  19 H :    0.054685
  20 H :    0.049353
  21 H :    0.062514
  22 H :    0.053952
  23 H :    0.049137
  24 H :    0.062806
  25 H :    0.065171
  26 H :    0.068718
  27 H :    0.059691
Sum of atomic charges:    1.0000000

LOEWDIN ATOMIC CHARGES
----------------------
   0 N :    0.096372
   1 C :    0.121455
   2 N :    0.096501
   3 H :    0.065221
   4 C :    0.019681
   5 C :    0.019972
   6 C :    0.044601
   7 C :    0.044523
   8 C :   -0.057123
   9 H :    0.048941
  10 C :   -0.053588
  11 C :   -0.053433
  12 C :   -0.057160
  13 H :    0.049040
  14 H :    0.062366
  15 H :    0.062327
  16 H :    0.040158
  17 H :    0.049649
  18 H :    0.037750
  19 H :    0.036507
  20 H :    0.036352
  21 H :    0.044695
  22 H :    0.036302
  23 H :    0.036222
  24 H :    0.044948
  25 H :    0.040101
  26 H :    0.049866
  27 H :    0.037751

  Mayer bond orders larger than 0.100000
B(  0-N ,  1-C ) :   1.3515 B(  0-N ,  5-C ) :   1.1722 B(  0-N ,  6-C ) :   0.8437
B(  1-C ,  2-N ) :   1.3528 B(  1-C ,  3-H ) :   0.9652 B(  2-N ,  4-C ) :   1.1717
B(  2-N ,  7-C ) :   0.8443 B(  4-C ,  5-C ) :   1.5954 B(  4-C , 14-H ) :   0.9864
B(  5-C , 15-H ) :   0.9867 B(  6-C ,  8-C ) :   1.0801 B(  6-C ,  9-H ) :   0.9413
B(  6-C , 10-C ) :   1.0669 B(  7-C , 11-C ) :   1.0668 B(  7-C , 12-C ) :   1.0799
B(  7-C , 13-H ) :   0.9414 B(  8-C , 16-H ) :   0.9665 B(  8-C , 17-H ) :   0.9633
B(  8-C , 18-H ) :   0.9592 B( 10-C , 19-H ) :   0.9658 B( 10-C , 20-H ) :   0.9633
B( 10-C , 21-H ) :   0.9710 B( 11-C , 22-H ) :   0.9659 B( 11-C , 23-H ) :   0.9633
B( 11-C , 24-H ) :   0.9707 B( 12-C , 25-H ) :   0.9661 B( 12-C , 26-H ) :   0.9634
B( 12-C , 27-H ) :   0.9588

Dispersion correction           -0.004032678
FINAL SINGLE POINT ENERGY      -462.135266508031

DIPOLE MOMENT
-------------
                                X             Y             Z
Electronic contribution:      0.14334      -5.87659       0.07634
Nuclear contribution   :     -0.13941       5.71318      -0.08151
                        -----------------------------------------
Total Dipole Moment    :      0.00394      -0.16340      -0.00518
                        -----------------------------------------
Magnitude (a.u.)       :      0.16353
Magnitude (Debye)      :      0.41567

Dispersion correction in the Hessian             ... Starting D4

VIBRATIONAL FREQUENCIES
-----------------------

Scaling factor for frequencies =  1.000000000  (already applied!)

   0:         0.00 cm**-1
   1:         0.00 cm**-1
   2:         0.00 cm**-1
   3:         0.00 cm**-1
   4:         0.00 cm**-1
   5:         0.00 cm**-1
   6:        46.27 cm**-1
   7:        48.63 cm**-1
   8:       111.19 cm**-1
   9:       138.06 cm**-1
  10:       168.08 cm**-1
  11:       233.34 cm**-1
  12:       250.86 cm**-1
  13:       294.98 cm**-1
  14:       300.48 cm**-1
  15:       314.39 cm**-1
  16:       336.31 cm**-1
  17:       350.97 cm**-1
  18:       427.45 cm**-1
  19:       436.78 cm**-1
  20:       475.65 cm**-1
  21:       508.35 cm**-1
  22:       601.76 cm**-1
  23:       672.85 cm**-1
  24:       682.31 cm**-1
  25:       695.71 cm**-1
  26:       771.67 cm**-1
  27:       890.32 cm**-1
  28:       912.63 cm**-1
  29:       917.12 cm**-1
  30:       917.52 cm**-1
  31:       945.73 cm**-1
  32:       946.24 cm**-1
  33:       966.56 cm**-1
  34:       967.82 cm**-1
  35:      1025.85 cm**-1
  36:      1038.07 cm**-1
  37:      1104.51 cm**-1
  38:      1126.57 cm**-1
  39:      1138.55 cm**-1
  40:      1169.12 cm**-1
  41:      1173.29 cm**-1
  42:      1177.92 cm**-1
  43:      1192.07 cm**-1
  44:      1217.32 cm**-1
  45:      1270.51 cm**-1
  46:      1340.70 cm**-1
  47:      1354.73 cm**-1
  48:      1359.36 cm**-1
  49:      1370.74 cm**-1
  50:      1390.72 cm**-1
  51:      1404.39 cm**-1
  52:      1406.08 cm**-1
  53:      1409.53 cm**-1
  54:      1411.41 cm**-1
  55:      1445.76 cm**-1
  56:      1447.82 cm**-1
  57:      1450.97 cm**-1
  58:      1456.56 cm**-1
  59:      1461.97 cm**-1
  60:      1466.74 cm**-1
  61:      1478.26 cm**-1
  62:      1480.78 cm**-1
  63:      1484.62 cm**-1
  64:      1507.57 cm**-1
  65:      1650.82 cm**-1
  66:      1654.01 cm**-1
  67:      3070.17 cm**-1
  68:      3070.36 cm**-1
  69:      3076.15 cm**-1
  70:      3076.28 cm**-1
  71:      3128.34 cm**-1
  72:      3128.71 cm**-1
  73:      3175.48 cm**-1
  74:      3175.84 cm**-1
  75:      3179.62 cm**-1
  76:      3179.70 cm**-1
  77:      3186.71 cm**-1
  78:      3187.13 cm**-1
  79:      3190.52 cm**-1
  80:      3190.63 cm**-1
  81:      3297.70 cm**-1
  82:      3314.94 cm**-1
  83:      3321.29 cm**-1

IR SPECTRUM
-----------

 Mode   freq       eps      Int      T**2         TX        TY        TZ
       cm**-1   L/(mol*cm) km/mol    a.u.
----------------------------------------------------------------------------
  6:     46.27   0.000048    0.24  0.000327  ( 0.002387  0.003859  0.017502)
  7:     48.63   0.000036    0.18  0.000232  ( 0.001241 -0.014523  0.004418)
  8:    111.19   0.000044    0.22  0.000124  ( 0.009054  0.000121  0.006475)
  9:    138.06   0.000003    0.01  0.000006  (-0.000017 -0.002507  0.000064)
 10:    168.08   0.000000    0.00  0.000000  ( 0.000327  0.000024  0.000120)
 11:    233.34   0.000016    0.08  0.000022  (-0.004602  0.000618 -0.000564)
 12:    250.86   0.000017    0.08  0.000021  (-0.002172 -0.003998  0.000297)
 13:    294.98   0.000042    0.21  0.000044  ( 0.006257  0.001657  0.001564)
 14:    300.48   0.000017    0.09  0.000018  ( 0.002824 -0.003106  0.000371)
 15:    314.39   0.000035    0.17  0.000034  ( 0.001242 -0.000537 -0.005698)
 16:    336.31   0.000004    0.02  0.000003  (-0.000079 -0.001826 -0.000332)
 17:    350.97   0.000040    0.20  0.000035  ( 0.005225  0.000697 -0.002762)
 18:    427.45   0.000028    0.14  0.000020  (-0.001727  0.000123  0.004139)
 19:    436.78   0.000085    0.43  0.000060  (-0.000380  0.007760 -0.000267)
 20:    475.65   0.000014    0.07  0.000009  ( 0.000498 -0.002960 -0.000107)
 21:    508.35   0.000253    1.28  0.000156  ( 0.011693  0.000505 -0.004303)
 22:    601.76   0.000354    1.79  0.000184  ( 0.000432 -0.013547 -0.000007)
 23:    672.85   0.013568   68.57  0.006293  ( 0.005788  0.001438  0.079104)
 24:    682.31   0.000106    0.53  0.000048  (-0.000595  0.006910 -0.000557)
 25:    695.71   0.000285    1.44  0.000128  (-0.011301 -0.000140  0.000468)
 26:    771.67   0.009282   46.91  0.003754  ( 0.007979  0.001012  0.060737)
 27:    890.32   0.005439   27.49  0.001907  ( 0.006791  0.001474  0.043108)
 28:    912.63   0.000111    0.56  0.000038  (-0.000927  0.006076  0.000537)
 29:    917.12   0.000394    1.99  0.000134  (-0.007975  0.001061  0.008317)
 30:    917.52   0.000157    0.79  0.000053  (-0.004628 -0.002650  0.004985)
 31:    945.73   0.000843    4.26  0.000278  ( 0.001772  0.011161  0.012259)
 32:    946.24   0.001107    5.60  0.000365  (-0.003672  0.007222 -0.017308)
 33:    966.56   0.000255    1.29  0.000082  (-0.000000  0.009066 -0.000101)
 34:    967.82   0.000092    0.47  0.000030  ( 0.000358 -0.000033 -0.005437)
 35:   1025.85   0.003308   16.72  0.001006  ( 0.031552  0.000885 -0.003184)
 36:   1038.07   0.000164    0.83  0.000049  (-0.000207 -0.007005  0.000377)
 37:   1104.51   0.003749   18.94  0.001059  (-0.001235  0.032516 -0.000560)
 38:   1126.57   0.001284    6.49  0.000356  (-0.017439 -0.000708 -0.007148)
 39:   1138.55   0.000181    0.92  0.000050  (-0.001523 -0.006881 -0.000125)
 40:   1169.12   0.016228   82.01  0.004332  (-0.064312 -0.000669  0.013973)
 41:   1173.29   0.001118    5.65  0.000297  ( 0.009617  0.010908 -0.009262)
 42:   1177.92   0.004085   20.64  0.001082  ( 0.016132 -0.002234 -0.028582)
 43:   1192.07   0.000828    4.18  0.000217  (-0.003428  0.014284  0.000998)
 44:   1217.32   0.034505  174.37  0.008845  (-0.093985 -0.002311  0.002642)
 45:   1270.51   0.007390   37.35  0.001815  ( 0.042550  0.001554  0.001507)
 46:   1340.70   0.000286    1.45  0.000067  ( 0.001554 -0.008013  0.000221)
 47:   1354.73   0.001103    5.57  0.000254  ( 0.015883  0.000803  0.001088)
 48:   1359.36   0.000052    0.26  0.000012  ( 0.002541  0.002338  0.000252)
 49:   1370.74   0.011071   55.95  0.002520  (-0.049939 -0.002484 -0.004520)
 50:   1390.72   0.001785    9.02  0.000401  ( 0.001194 -0.019979  0.000125)
 51:   1404.39   0.006580   33.25  0.001462  ( 0.015708 -0.001546  0.034828)
 52:   1406.08   0.000331    1.67  0.000073  ( 0.002174  0.002430  0.007925)
 53:   1409.53   0.002513   12.70  0.000556  (-0.023174  0.000529 -0.004375)
 54:   1411.41   0.009739   49.22  0.002153  ( 0.000703 -0.046398 -0.000116)
 55:   1445.76   0.000030    0.15  0.000006  ( 0.002153 -0.000351 -0.001301)
 56:   1447.82   0.000046    0.23  0.000010  ( 0.002610 -0.001025 -0.001415)
 57:   1450.97   0.000150    0.76  0.000032  (-0.000694 -0.000745  0.005586)
 58:   1456.56   0.003407   17.22  0.000730  ( 0.000245  0.027015 -0.000307)
 59:   1461.97   0.006930   35.02  0.001479  ( 0.022751 -0.000279 -0.031010)
 60:   1466.74   0.002301   11.63  0.000489  (-0.002026 -0.022030 -0.000189)
 61:   1478.26   0.000980    4.95  0.000207  ( 0.011733 -0.002690  0.007879)
 62:   1480.78   0.000167    0.84  0.000035  (-0.001955  0.003365 -0.004475)
 63:   1484.62   0.000598    3.02  0.000126  ( 0.010530 -0.000048  0.003836)
 64:   1507.57   0.000226    1.14  0.000047  ( 0.000415 -0.006831 -0.000018)
 65:   1650.82   0.030583  154.55  0.005781  (-0.075970 -0.001939  0.002470)
 66:   1654.01   0.002110   10.66  0.000398  ( 0.002691 -0.019770  0.000224)
 67:   3070.17   0.003040   15.36  0.000309  ( 0.007277  0.002946  0.015729)
 68:   3070.36   0.001834    9.27  0.000186  (-0.005965  0.003002 -0.011910)
 69:   3076.15   0.001462    7.39  0.000148  ( 0.001834 -0.011759  0.002592)
 70:   3076.28   0.001879    9.49  0.000191  ( 0.000965  0.013609  0.002108)
 71:   3128.34   0.001160    5.86  0.000116  ( 0.005778  0.005469 -0.007238)
 72:   3128.71   0.001169    5.91  0.000117  ( 0.006098 -0.005257 -0.007198)
 73:   3175.48   0.001966    9.93  0.000193  ( 0.005177  0.012813 -0.001490)
 74:   3175.84   0.001852    9.36  0.000182  ( 0.005529 -0.012275 -0.000847)
 75:   3179.62   0.004153   20.99  0.000408  ( 0.005177 -0.009462 -0.017066)
 76:   3179.70   0.003364   17.00  0.000330  ( 0.004695  0.012577 -0.012246)
 77:   3186.71   0.002108   10.65  0.000206  ( 0.009623  0.006710 -0.008294)
 78:   3187.13   0.001909    9.65  0.000187  (-0.008510  0.006851  0.008218)
 79:   3190.52   0.003117   15.75  0.000305  (-0.017371 -0.000314 -0.001741)
 80:   3190.63   0.001417    7.16  0.000139  (-0.011550  0.001055 -0.002023)
 81:   3297.70   0.005193   26.24  0.000491  (-0.021961 -0.000182  0.003022)
 82:   3314.94   0.008644   43.68  0.000814  (-0.000152  0.028522 -0.000474)
 83:   3321.29   0.005781   29.21  0.000543  ( 0.000801 -0.023288  0.000396)

--------------------------
THERMOCHEMISTRY AT 298.15K
--------------------------

Temperature         ... 298.15 K
Pressure            ... 1.00 atm
Total Mass          ... 153.25 AMU

Throughout the following assumptions are being made:
  (1) The electronic state is orbitally nondegenerate
  (2) There are no thermally accessible electronically excited states
  (3) Hindered rotations indicated by low frequency modes are not
      treated as such but are treated as vibrations and this may
      cause some error
  (4) All equations used are the standard statistical mechanics
      equations for an ideal gas
  (5) All vibrations are strictly harmonic

freq.      46.27  E(vib)   ...       0.53
freq.      48.63  E(vib)   ...       0.53
freq.     111.19  E(vib)   ...       0.45
freq.     138.06  E(vib)   ...       0.42
freq.     168.08  E(vib)   ...       0.38
freq.     233.34  E(vib)   ...       0.32
freq.     250.86  E(vib)   ...       0.30
freq.     294.98  E(vib)   ...       0.27
freq.     300.48  E(vib)   ...       0.26
freq.     314.39  E(vib)   ...       0.25
freq.     336.31  E(vib)   ...       0.24
freq.     350.97  E(vib)   ...       0.23
freq.     427.45  E(vib)   ...       0.18
freq.     436.78  E(vib)   ...       0.17
freq.     475.65  E(vib)   ...       0.15
freq.     508.35  E(vib)   ...       0.14
freq.     601.76  E(vib)   ...       0.10
freq.     672.85  E(vib)   ...       0.08
freq.     682.31  E(vib)   ...       0.08
freq.     695.71  E(vib)   ...       0.07
freq.     771.67  E(vib)   ...       0.05
freq.     890.32  E(vib)   ...       0.04
freq.     912.63  E(vib)   ...       0.03
freq.     917.12  E(vib)   ...       0.03
freq.     917.52  E(vib)   ...       0.03
freq.     945.73  E(vib)   ...       0.03
freq.     946.24  E(vib)   ...       0.03
freq.     966.56  E(vib)   ...       0.03
freq.     967.82  E(vib)   ...       0.03
freq.    1025.85  E(vib)   ...       0.02
freq.    1038.07  E(vib)   ...       0.02
freq.    1104.51  E(vib)   ...       0.02
freq.    1126.57  E(vib)   ...       0.01
freq.    1138.55  E(vib)   ...       0.01
freq.    1169.12  E(vib)   ...       0.01
freq.    1173.29  E(vib)   ...       0.01
freq.    1177.92  E(vib)   ...       0.01
freq.    1192.07  E(vib)   ...       0.01
freq.    1217.32  E(vib)   ...       0.01
freq.    1270.51  E(vib)   ...       0.01
freq.    1340.70  E(vib)   ...       0.01
freq.    1354.73  E(vib)   ...       0.01
freq.    1359.36  E(vib)   ...       0.01
freq.    1370.74  E(vib)   ...       0.01
freq.    1390.72  E(vib)   ...       0.00
freq.    1404.39  E(vib)   ...       0.00
freq.    1406.08  E(vib)   ...       0.00
freq.    1409.53  E(vib)   ...       0.00
freq.    1411.41  E(vib)   ...       0.00
freq.    1445.76  E(vib)   ...       0.00
freq.    1447.82  E(vib)   ...       0.00
freq.    1450.97  E(vib)   ...       0.00
freq.    1456.56  E(vib)   ...       0.00
freq.    1461.97  E(vib)   ...       0.00
freq.    1466.74  E(vib)   ...       0.00
freq.    1478.26  E(vib)   ...       0.00
freq.    1480.78  E(vib)   ...       0.00
freq.    1484.62  E(vib)   ...       0.00
freq.    1507.57  E(vib)   ...       0.00
freq.    1650.82  E(vib)   ...       0.00
freq.    1654.01  E(vib)   ...       0.00
freq.    3070.17  E(vib)   ...       0.00
freq.    3070.36  E(vib)   ...       0.00
freq.    3076.15  E(vib)   ...       0.00
freq.    3076.28  E(vib)   ...       0.00
freq.    3128.34  E(vib)   ...       0.00
freq.    3128.71  E(vib)   ...       0.00
freq.    3175.48  E(vib)   ...       0.00
freq.    3175.84  E(vib)   ...       0.00
freq.    3179.62  E(vib)   ...       0.00
freq.    3179.70  E(vib)   ...       0.00
freq.    3186.71  E(vib)   ...       0.00
freq.    3187.13  E(vib)   ...       0.00
freq.    3190.52  E(vib)   ...       0.00
freq.    3190.63  E(vib)   ...       0.00
freq.    3297.70  E(vib)   ...       0.00
freq.    3314.94  E(vib)   ...       0.00
freq.    3321.29  E(vib)   ...       0.00

------------
INNER ENERGY
------------

The inner energy is: U= E(el) + E(ZPE) + E(vib) + E(rot) + E(trans)
    E(el)   - is the total energy from the electronic structure calculation
              = E(kin-el) + E(nuc-el) + E(el-el) + E(nuc-nuc)
    E(ZPE)  - the the zero temperature vibrational energy from the frequency calculation
    E(vib)  - the the finite temperature correction to E(ZPE) due to population
              of excited vibrational states
    E(rot)  - is the rotational thermal energy
    E(trans)- is the translational thermal energy

Summary of contributions to the inner energy U:
Electronic energy                ...   -462.13526651 Eh
Zero point energy                ...      0.25594506 Eh     160.61 kcal/mol
Thermal vibrational correction   ...      0.00902756 Eh       5.66 kcal/mol
Thermal rotational correction    ...      0.00141627 Eh       0.89 kcal/mol
Thermal translational correction ...      0.00141627 Eh       0.89 kcal/mol
-----------------------------------------------------------------------
Total thermal energy                   -461.86746134 Eh

Summary of corrections to the electronic energy:
(perhaps to be used in another calculation)
Total thermal correction                  0.01186011 Eh       7.44 kcal/mol
Non-thermal (ZPE) correction              0.25594506 Eh     160.61 kcal/mol
-----------------------------------------------------------------------
Total correction                          0.26780517 Eh     168.05 kcal/mol

--------
ENTHALPY
--------

The enthalpy is H = U + kB*T
                kB is Boltzmann's constant
Total free energy                 ...   -461.86746134 Eh
Thermal Enthalpy correction       ...      0.00094421 Eh       0.59 kcal/mol
-----------------------------------------------------------------------
Total Enthalpy                    ...   -461.86651713 Eh

Note: Only C1 symmetry has been detected, increase convergence thresholds
      if your molecule has a higher symmetry. Symmetry factor of 1.0 is
      used for the rotational entropy correction.

Note: Rotational entropy computed according to Herzberg
Infrared and Raman Spectra, Chapter V,1, Van Nostrand Reinhold, 1945
Point Group:  C1, Symmetry Number:   1
Rotational constants in cm-1:     0.071540     0.021001     0.018731

Vibrational entropy computed according to the QRRHO of S. Grimme
Chem.Eur.J. 2012 18 9955

-------
ENTROPY
-------

The entropy contributions are T*S = T*(S(el)+S(vib)+S(rot)+S(trans))
     S(el)   - electronic entropy
     S(vib)  - vibrational entropy
     S(rot)  - rotational entropy

                             ****ORCA TERMINATED NORMALLY****
TOTAL RUN TIME: 0 days 3 hours 49 minutes 41 seconds 811 msec
