                         Program Version 5.0.4 -  RELEASE  -
|  1> # ORCA 5.0.4 - /users/bwb16179/postgrad/2024_03/DFT_Crest_Conformers/Opt/deprot/5_deprot_aq_4.inp # write input file
|  2> # Basic Mode
|  3> #
|  4> ! Opt Freq wB97X Def2-SVP D4 SlowConv TightSCF Defgrid2 Def2/J RIJCOSX CPCM(Water)
|  5>
|  6> %PAL NPROCS 8 END
|  7>
|  8> %maxcore 4500
|  9>
| 10> %geom
| 11> Maxiter 150
| 12> END
| 13>
| 14> * xyzfile 0 1 5_deprot_aq_4.xyz
| 15>
| 16>                          ****END OF INPUT****
 Total Charge           Charge          ....    0
 Multiplicity           Mult            ....    1
 Number of Electrons    NEL             ....  100
Dispersion correction           -0.005730604
FINAL SINGLE POINT ENERGY      -540.187142093753
Dispersion correction            ... Starting D4
                    ***********************HURRAY********************

CARTESIAN COORDINATES (ANGSTROEM)
---------------------------------
  N     -1.070447    0.107471    0.203627
  C     -0.025565   -0.322163   -0.554510
  N      1.062084    0.021750    0.180424
  C      0.708198    0.648019    1.367869
  C     -0.644959    0.703280    1.381502
  C     -2.483420   -0.070891   -0.221714
  C      2.471936   -0.261257   -0.182759
  C     -2.701465    0.695885   -1.528400
  C     -3.427867    0.469203    0.851241
  C     -2.745392   -1.565242   -0.426153
  C      2.539833   -0.888021   -1.572712
  C      3.054188   -1.234291    0.848440
  C      3.257535    1.054042   -0.178182
  H      1.430148    1.000617    2.102067
  H     -1.314061    1.116534    2.131428
  H     -2.585845   -2.117603    0.513637
  H     -2.065632   -1.973688   -1.187153
  H     -3.784613   -1.726481   -0.751800
  H     -2.524244    1.772777   -1.378328
  H     -3.735801    0.559601   -1.879914
  H     -2.011246    0.336146   -2.304925
  H      2.832773    1.762828   -0.906245
  H      4.306129    0.862110   -0.451782
  H      3.250372    1.529411    0.814409
  H      3.041161   -0.803641    1.861651
  H      4.098483   -1.472470    0.594980
  H      2.476323   -2.171718    0.861085
  H     -3.280077    1.546879    1.021061
  H     -3.302573   -0.060463    1.808327
  H     -4.465206    0.320368    0.517481
  H      3.594419   -1.087999   -1.816544
  H      2.123245   -0.213936   -2.334874
  H      1.981765   -1.833469   -1.615108

 Multiplicity           Mult            ....    1
 Number of Electrons    NEL             ....  100
 Basis Dimension        Dim             ....  282

ORBITAL ENERGIES
----------------

  NO   OCC          E(Eh)            E(eV)
   0   2.0000     -14.445248      -393.0752
   1   2.0000     -14.443604      -393.0305
   2   2.0000     -10.316126      -280.7161
   3   2.0000     -10.315700      -280.7045
   4   2.0000     -10.292352      -280.0691
   5   2.0000     -10.289789      -279.9994
   6   2.0000     -10.271301      -279.4963
   7   2.0000     -10.262776      -279.2643
   8   2.0000     -10.261421      -279.2275
   9   2.0000     -10.261147      -279.2200
  10   2.0000     -10.257809      -279.1292
  11   2.0000     -10.257547      -279.1220
  12   2.0000     -10.257533      -279.1217
  13   2.0000      -1.143437       -31.1145
  14   2.0000      -1.040255       -28.3068
  15   2.0000      -0.950310       -25.8592
  16   2.0000      -0.899362       -24.4729
  17   2.0000      -0.864373       -23.5208
  18   2.0000      -0.811211       -22.0742
  19   2.0000      -0.808401       -21.9977
  20   2.0000      -0.805403       -21.9161
  21   2.0000      -0.802932       -21.8489
  22   2.0000      -0.754287       -20.5252
  23   2.0000      -0.717464       -19.5232
  24   2.0000      -0.654647       -17.8138
  25   2.0000      -0.650107       -17.6903
  26   2.0000      -0.616117       -16.7654
  27   2.0000      -0.579906       -15.7801
  28   2.0000      -0.579220       -15.7614
  29   2.0000      -0.556700       -15.1486
  30   2.0000      -0.555777       -15.1235
  31   2.0000      -0.551250       -15.0003
  32   2.0000      -0.529719       -14.4144
  33   2.0000      -0.527826       -14.3629
  34   2.0000      -0.523667       -14.2497
  35   2.0000      -0.500615       -13.6224
  36   2.0000      -0.490440       -13.3455
  37   2.0000      -0.483147       -13.1471
  38   2.0000      -0.479607       -13.0508
  39   2.0000      -0.471395       -12.8273
  40   2.0000      -0.465259       -12.6603
  41   2.0000      -0.465047       -12.6546
  42   2.0000      -0.460778       -12.5384
  43   2.0000      -0.446255       -12.1432
  44   2.0000      -0.437244       -11.8980
  45   2.0000      -0.434432       -11.8215
  46   2.0000      -0.429923       -11.6988
  47   2.0000      -0.368021       -10.0144
  48   2.0000      -0.320962        -8.7338
  49   2.0000      -0.314665        -8.5625
  50   0.0000       0.125696         3.4204
  51   0.0000       0.128527         3.4974
  52   0.0000       0.142917         3.8890
  53   0.0000       0.149965         4.0808
  54   0.0000       0.182318         4.9611

MULLIKEN ATOMIC CHARGES
-----------------------
   0 N :   -0.220947
   1 C :   -0.183800
   2 N :   -0.196814
   3 C :    0.009420
   4 C :    0.019508
   5 C :   -0.176140
   6 C :   -0.211018
   7 C :    0.043889
   8 C :    0.015400
   9 C :    0.042153
  10 C :    0.073798
  11 C :    0.037845
  12 C :    0.031571
  13 H :    0.063706
  14 H :    0.056921
  15 H :    0.028738
  16 H :    0.025023
  17 H :    0.033815
  18 H :    0.028986
  19 H :    0.033838
  20 H :    0.024859
  21 H :    0.035722
  22 H :    0.039307
  23 H :    0.034239
  24 H :    0.033162
  25 H :    0.038895
  26 H :    0.033964
  27 H :    0.041715
  28 H :    0.040922
  29 H :    0.043864
  30 H :    0.033499
  31 H :    0.021372
  32 H :    0.022588
Sum of atomic charges:   -0.0000000

LOEWDIN ATOMIC CHARGES
----------------------
   0 N :    0.030192
   1 C :   -0.298149
   2 N :    0.036253
   3 C :   -0.043022
   4 C :   -0.035253
   5 C :    0.010873
   6 C :    0.007141
   7 C :   -0.050517
   8 C :   -0.052599
   9 C :   -0.050703
  10 C :   -0.047023
  11 C :   -0.050787
  12 C :   -0.051006
  13 H :    0.038004
  14 H :    0.039348
  15 H :    0.026981
  16 H :    0.022108
  17 H :    0.030228
  18 H :    0.027077
  19 H :    0.030490
  20 H :    0.022457
  21 H :    0.029497
  22 H :    0.034094
  23 H :    0.027521
  24 H :    0.027460
  25 H :    0.033459
  26 H :    0.028936
  27 H :    0.030020
  28 H :    0.030070
  29 H :    0.037620
  30 H :    0.030860
  31 H :    0.024574
  32 H :    0.023793

  Mayer bond orders larger than 0.100000
B(  0-N ,  1-C ) :   1.2373 B(  0-N ,  4-C ) :   1.1360 B(  0-N ,  5-C ) :   0.8598
B(  1-C ,  2-N ) :   1.2717 B(  2-N ,  3-C ) :   1.1221 B(  2-N ,  6-C ) :   0.8726
B(  3-C ,  4-C ) :   1.6168 B(  3-C , 13-H ) :   0.9839 B(  4-C , 14-H ) :   0.9888
B(  5-C ,  7-C ) :   1.0404 B(  5-C ,  8-C ) :   1.0653 B(  5-C ,  9-C ) :   1.0407
B(  6-C , 10-C ) :   1.0627 B(  6-C , 11-C ) :   1.0409 B(  6-C , 12-C ) :   1.0416
B(  7-C , 18-H ) :   0.9665 B(  7-C , 19-H ) :   0.9710 B(  7-C , 20-H ) :   0.9610
B(  8-C , 27-H ) :   0.9585 B(  8-C , 28-H ) :   0.9591 B(  8-C , 29-H ) :   0.9656
B(  9-C , 15-H ) :   0.9666 B(  9-C , 16-H ) :   0.9606 B(  9-C , 17-H ) :   0.9707
B( 10-C , 30-H ) :   0.9652 B( 10-C , 31-H ) :   0.9564 B( 10-C , 32-H ) :   0.9545
B( 11-C , 24-H ) :   0.9630 B( 11-C , 25-H ) :   0.9713 B( 11-C , 26-H ) :   0.9667
B( 12-C , 21-H ) :   0.9669 B( 12-C , 22-H ) :   0.9708 B( 12-C , 23-H ) :   0.9633

Dispersion correction           -0.005730832
FINAL SINGLE POINT ENERGY      -540.187143219840

DIPOLE MOMENT
-------------
                                X             Y             Z
Electronic contribution:     -0.01325       2.00878       3.45573
Nuclear contribution   :      0.06296      -1.43441      -2.28884
                        -----------------------------------------
Total Dipole Moment    :      0.04971       0.57437       1.16689
                        -----------------------------------------
Magnitude (a.u.)       :      1.30154
Magnitude (Debye)      :      3.30825

Dispersion correction in the Hessian             ... Starting D4

VIBRATIONAL FREQUENCIES
-----------------------

Scaling factor for frequencies =  1.000000000  (already applied!)

   0:         0.00 cm**-1
   1:         0.00 cm**-1
   2:         0.00 cm**-1
   3:         0.00 cm**-1
   4:         0.00 cm**-1
   5:         0.00 cm**-1
   6:        18.66 cm**-1
   7:        39.32 cm**-1
   8:       102.72 cm**-1
   9:       147.60 cm**-1
  10:       174.05 cm**-1
  11:       231.48 cm**-1
  12:       235.26 cm**-1
  13:       262.00 cm**-1
  14:       272.88 cm**-1
  15:       286.18 cm**-1
  16:       307.52 cm**-1
  17:       314.49 cm**-1
  18:       327.88 cm**-1
  19:       342.34 cm**-1
  20:       344.26 cm**-1
  21:       364.25 cm**-1
  22:       371.58 cm**-1
  23:       410.74 cm**-1
  24:       449.52 cm**-1
  25:       473.46 cm**-1
  26:       478.95 cm**-1
  27:       533.94 cm**-1
  28:       582.56 cm**-1
  29:       657.01 cm**-1
  30:       680.27 cm**-1
  31:       682.25 cm**-1
  32:       750.70 cm**-1
  33:       845.74 cm**-1
  34:       855.43 cm**-1
  35:       888.58 cm**-1
  36:       943.98 cm**-1
  37:       944.23 cm**-1
  38:       945.74 cm**-1
  39:       951.50 cm**-1
  40:       957.48 cm**-1
  41:       962.97 cm**-1
  42:      1006.95 cm**-1
  43:      1023.30 cm**-1
  44:      1041.74 cm**-1
  45:      1042.49 cm**-1
  46:      1045.69 cm**-1
  47:      1048.60 cm**-1
  48:      1113.55 cm**-1
  49:      1169.03 cm**-1
  50:      1218.47 cm**-1
  51:      1257.53 cm**-1
  52:      1266.30 cm**-1
  53:      1270.28 cm**-1
  54:      1270.67 cm**-1
  55:      1278.52 cm**-1
  56:      1359.29 cm**-1
  57:      1379.37 cm**-1
  58:      1383.49 cm**-1
  59:      1388.51 cm**-1
  60:      1390.85 cm**-1
  61:      1394.45 cm**-1
  62:      1404.00 cm**-1
  63:      1405.71 cm**-1
  64:      1419.99 cm**-1
  65:      1435.36 cm**-1
  66:      1438.93 cm**-1
  67:      1444.37 cm**-1
  68:      1446.63 cm**-1
  69:      1450.62 cm**-1
  70:      1451.33 cm**-1
  71:      1460.51 cm**-1
  72:      1461.54 cm**-1
  73:      1464.66 cm**-1
  74:      1466.26 cm**-1
  75:      1469.97 cm**-1
  76:      1480.30 cm**-1
  77:      1482.71 cm**-1
  78:      1657.53 cm**-1
  79:      3063.01 cm**-1
  80:      3063.58 cm**-1
  81:      3064.90 cm**-1
  82:      3066.68 cm**-1
  83:      3069.66 cm**-1
  84:      3076.55 cm**-1
  85:      3163.88 cm**-1
  86:      3165.26 cm**-1
  87:      3167.11 cm**-1
  88:      3168.29 cm**-1
  89:      3168.54 cm**-1
  90:      3170.73 cm**-1
  91:      3172.64 cm**-1
  92:      3175.79 cm**-1
  93:      3177.36 cm**-1
  94:      3180.98 cm**-1
  95:      3185.55 cm**-1
  96:      3188.07 cm**-1
  97:      3294.23 cm**-1
  98:      3320.82 cm**-1

IR SPECTRUM
-----------

 Mode   freq       eps      Int      T**2         TX        TY        TZ
       cm**-1   L/(mol*cm) km/mol    a.u.
----------------------------------------------------------------------------
  6:     18.66   0.000174    0.88  0.002904  (-0.000477  0.048836 -0.022767)
  7:     39.32   0.000167    0.85  0.001329  (-0.000797  0.032277 -0.016940)
  8:    102.72   0.003079   15.56  0.009355  (-0.003527 -0.085882  0.044347)
  9:    147.60   0.000324    1.64  0.000686  (-0.002903  0.011259  0.023463)
 10:    174.05   0.000236    1.19  0.000423  (-0.001025 -0.016582  0.012126)
 11:    231.48   0.000019    0.10  0.000026  (-0.001043  0.004649 -0.001801)
 12:    235.26   0.000049    0.25  0.000064  ( 0.001089 -0.006897  0.003963)
 13:    262.00   0.000364    1.84  0.000433  ( 0.020209  0.002457  0.004330)
 14:    272.88   0.000094    0.48  0.000108  ( 0.010229 -0.001236 -0.001310)
 15:    286.18   0.000084    0.43  0.000092  (-0.009301 -0.001102 -0.001996)
 16:    307.52   0.000125    0.63  0.000127  (-0.011204  0.000522  0.000868)
 17:    314.49   0.000002    0.01  0.000002  ( 0.001218  0.000404 -0.000872)
 18:    327.88   0.000113    0.57  0.000108  (-0.002290  0.008817 -0.004962)
 19:    342.34   0.000876    4.43  0.000799  ( 0.003701  0.017901 -0.021558)
 20:    344.26   0.000876    4.43  0.000794  (-0.004174  0.027850 -0.001174)
 21:    364.25   0.000066    0.33  0.000056  ( 0.002451  0.006376 -0.003110)
 22:    371.58   0.001048    5.29  0.000880  ( 0.029659 -0.000276 -0.000299)
 23:    410.74   0.000276    1.40  0.000210  (-0.014483  0.000030  0.000472)
 24:    449.52   0.001753    8.86  0.001217  ( 0.002965  0.030674 -0.016356)
 25:    473.46   0.000231    1.17  0.000152  ( 0.003033 -0.007700 -0.009157)
 26:    478.95   0.000057    0.29  0.000037  (-0.002411 -0.002748  0.004891)
 27:    533.94   0.002192   11.08  0.001281  ( 0.035743 -0.001766  0.000784)
 28:    582.56   0.000289    1.46  0.000155  ( 0.000889 -0.006314 -0.010681)
 29:    657.01   0.004415   22.31  0.002097  ( 0.045758 -0.000486 -0.001675)
 30:    680.27   0.000026    0.13  0.000012  (-0.001689  0.002780 -0.001169)
 31:    682.25   0.002178   11.01  0.000996  ( 0.000612  0.027831 -0.014877)
 32:    750.70   0.014725   74.41  0.006121  ( 0.001637  0.068808 -0.037200)
 33:    845.74   0.000065    0.33  0.000024  (-0.002524  0.002403  0.003420)
 34:    855.43   0.000806    4.08  0.000294  ( 0.017099 -0.001049  0.000838)
 35:    888.58   0.000024    0.12  0.000008  (-0.000549 -0.002457  0.001450)
 36:    943.98   0.000132    0.66  0.000043  ( 0.001108 -0.006159  0.002077)
 37:    944.23   0.000407    2.05  0.000134  ( 0.001444  0.010586 -0.004497)
 38:    945.74   0.000705    3.56  0.000233  (-0.011877  0.003749  0.008809)
 39:    951.50   0.000391    1.97  0.000128  (-0.000806  0.004699  0.010264)
 40:    957.48   0.000049    0.25  0.000016  ( 0.002676 -0.000500 -0.002918)
 41:    962.97   0.000039    0.20  0.000013  (-0.000322 -0.002716  0.002244)
 42:   1006.95   0.003350   16.93  0.001038  ( 0.032177 -0.000359  0.001612)
 43:   1023.30   0.000545    2.75  0.000166  ( 0.001320 -0.005930 -0.011370)
 44:   1041.74   0.000082    0.41  0.000025  (-0.004713  0.000884  0.001253)
 45:   1042.49   0.000008    0.04  0.000002  (-0.000873 -0.001207  0.000188)
 46:   1045.69   0.000125    0.63  0.000037  (-0.004918  0.001724  0.003194)
 47:   1048.60   0.000120    0.60  0.000036  ( 0.001239  0.005056 -0.002913)
 48:   1113.55   0.005180   26.18  0.001452  ( 0.001573  0.017534  0.033789)
 49:   1169.03   0.001105    5.58  0.000295  (-0.016873 -0.001734 -0.002679)
 50:   1218.47   0.001201    6.07  0.000308  (-0.000416 -0.009193 -0.014933)
 51:   1257.53   0.014566   73.61  0.003615  (-0.058726 -0.002417 -0.012648)
 52:   1266.30   0.017963   90.78  0.004427  ( 0.066119 -0.006753 -0.003043)
 53:   1270.28   0.002170   10.96  0.000533  ( 0.011571 -0.018347  0.007905)
 54:   1270.67   0.004577   23.13  0.001124  ( 0.010373  0.027879 -0.015471)
 55:   1278.52   0.025443  128.58  0.006210  ( 0.078783 -0.001534 -0.001049)
 56:   1359.29   0.001080    5.46  0.000248  ( 0.014383  0.002565  0.005883)
 57:   1379.37   0.000849    4.29  0.000192  (-0.002107  0.007398 -0.011531)
 58:   1383.49   0.004730   23.90  0.001067  ( 0.002324  0.026349 -0.019161)
 59:   1388.51   0.008209   41.49  0.001845  (-0.004793  0.027177  0.032916)
 60:   1390.85   0.004999   25.26  0.001122  (-0.001967 -0.027639  0.018812)
 61:   1394.45   0.000299    1.51  0.000067  (-0.000838 -0.007317 -0.003575)
 62:   1404.00   0.004315   21.81  0.000959  (-0.030947 -0.001146  0.000332)
 63:   1405.71   0.000683    3.45  0.000152  ( 0.012240  0.000217 -0.001288)
 64:   1419.99   0.012810   64.73  0.002815  ( 0.008603 -0.024654 -0.046187)
 65:   1435.36   0.000048    0.24  0.000010  ( 0.001083 -0.002529  0.001699)
 66:   1438.93   0.000113    0.57  0.000025  (-0.001194  0.004557 -0.001550)
 67:   1444.37   0.000136    0.69  0.000029  (-0.001589 -0.001686 -0.004906)
 68:   1446.63   0.000005    0.02  0.000001  ( 0.000920 -0.000252  0.000365)
 69:   1450.62   0.000245    1.24  0.000053  (-0.006344 -0.002101 -0.002819)
 70:   1451.33   0.000557    2.82  0.000120  (-0.008748 -0.001437 -0.006425)
 71:   1460.51   0.001358    6.86  0.000290  (-0.012550 -0.010201  0.005342)
 72:   1461.54   0.000428    2.16  0.000091  ( 0.006568 -0.006443  0.002606)
 73:   1464.66   0.016942   85.62  0.003610  ( 0.059814  0.004370  0.003590)
 74:   1466.26   0.004054   20.49  0.000863  ( 0.025278 -0.012869  0.007630)
 75:   1469.97   0.001689    8.53  0.000359  ( 0.016517  0.001938  0.009054)
 76:   1480.30   0.001201    6.07  0.000253  ( 0.013672  0.002577  0.007724)
 77:   1482.71   0.000324    1.64  0.000068  (-0.006671 -0.001665 -0.004563)
 78:   1657.53   0.000108    0.54  0.000020  (-0.002205 -0.001879 -0.003447)
 79:   3063.01   0.006836   34.55  0.000696  ( 0.000647 -0.021659  0.015065)
 80:   3063.58   0.005556   28.08  0.000566  ( 0.001046 -0.020104  0.012675)
 81:   3064.90   0.003488   17.63  0.000355  (-0.003698 -0.013212 -0.012920)
 82:   3066.68   0.003169   16.02  0.000322  ( 0.010824  0.009935  0.010326)
 83:   3069.66   0.002506   12.67  0.000255  (-0.014147  0.002144  0.007076)
 84:   3076.55   0.003076   15.54  0.000312  (-0.008612  0.005258  0.014497)
 85:   3163.88   0.001839    9.29  0.000181  (-0.001199  0.011856 -0.006273)
 86:   3165.26   0.005899   29.81  0.000582  ( 0.015491  0.008751  0.016279)
 87:   3167.11   0.003771   19.06  0.000372  ( 0.005246  0.017356  0.006542)
 88:   3168.29   0.006439   32.54  0.000634  (-0.000972  0.022331 -0.011602)
 89:   3168.54   0.004743   23.97  0.000467  ( 0.007415 -0.001506  0.020245)
 90:   3170.73   0.000759    3.84  0.000075  (-0.005007 -0.005738  0.004089)
 91:   3172.64   0.004509   22.78  0.000443  ( 0.008528 -0.006228 -0.018219)
 92:   3175.79   0.006500   32.85  0.000639  ( 0.017608  0.008775  0.015866)
 93:   3177.36   0.013218   66.80  0.001298  (-0.034660  0.009687  0.001735)
 94:   3180.98   0.002168   10.96  0.000213  ( 0.013723 -0.004831 -0.001013)
 95:   3185.55   0.005739   29.00  0.000562  (-0.021621  0.001853  0.009552)
 96:   3188.07   0.004485   22.66  0.000439  ( 0.007699  0.017858 -0.007798)
 97:   3294.23   0.001454    7.35  0.000138  (-0.011668 -0.000342 -0.001202)
 98:   3320.82   0.000610    3.08  0.000057  ( 0.006316 -0.002131 -0.003594)

--------------------------
THERMOCHEMISTRY AT 298.15K
--------------------------

Temperature         ... 298.15 K
Pressure            ... 1.00 atm
Total Mass          ... 180.30 AMU

Throughout the following assumptions are being made:
  (1) The electronic state is orbitally nondegenerate
  (2) There are no thermally accessible electronically excited states
  (3) Hindered rotations indicated by low frequency modes are not
      treated as such but are treated as vibrations and this may
      cause some error
  (4) All equations used are the standard statistical mechanics
      equations for an ideal gas
  (5) All vibrations are strictly harmonic

freq.      18.66  E(vib)   ...       0.57
freq.      39.32  E(vib)   ...       0.54
freq.     102.72  E(vib)   ...       0.46
freq.     147.60  E(vib)   ...       0.41
freq.     174.05  E(vib)   ...       0.38
freq.     231.48  E(vib)   ...       0.32
freq.     235.26  E(vib)   ...       0.32
freq.     262.00  E(vib)   ...       0.29
freq.     272.88  E(vib)   ...       0.29
freq.     286.18  E(vib)   ...       0.27
freq.     307.52  E(vib)   ...       0.26
freq.     314.49  E(vib)   ...       0.25
freq.     327.88  E(vib)   ...       0.24
freq.     342.34  E(vib)   ...       0.23
freq.     344.26  E(vib)   ...       0.23
freq.     364.25  E(vib)   ...       0.22
freq.     371.58  E(vib)   ...       0.21
freq.     410.74  E(vib)   ...       0.19
freq.     449.52  E(vib)   ...       0.17
freq.     473.46  E(vib)   ...       0.15
freq.     478.95  E(vib)   ...       0.15
freq.     533.94  E(vib)   ...       0.13
freq.     582.56  E(vib)   ...       0.11
freq.     657.01  E(vib)   ...       0.08
freq.     680.27  E(vib)   ...       0.08
freq.     682.25  E(vib)   ...       0.08
freq.     750.70  E(vib)   ...       0.06
freq.     845.74  E(vib)   ...       0.04
freq.     855.43  E(vib)   ...       0.04
freq.     888.58  E(vib)   ...       0.04
freq.     943.98  E(vib)   ...       0.03
freq.     944.23  E(vib)   ...       0.03
freq.     945.74  E(vib)   ...       0.03
freq.     951.50  E(vib)   ...       0.03
freq.     957.48  E(vib)   ...       0.03
freq.     962.97  E(vib)   ...       0.03
freq.    1006.95  E(vib)   ...       0.02
freq.    1023.30  E(vib)   ...       0.02
freq.    1041.74  E(vib)   ...       0.02
freq.    1042.49  E(vib)   ...       0.02
freq.    1045.69  E(vib)   ...       0.02
freq.    1048.60  E(vib)   ...       0.02
freq.    1113.55  E(vib)   ...       0.01
freq.    1169.03  E(vib)   ...       0.01
freq.    1218.47  E(vib)   ...       0.01
freq.    1257.53  E(vib)   ...       0.01
freq.    1266.30  E(vib)   ...       0.01
freq.    1270.28  E(vib)   ...       0.01
freq.    1270.67  E(vib)   ...       0.01
freq.    1278.52  E(vib)   ...       0.01
freq.    1359.29  E(vib)   ...       0.01
freq.    1379.37  E(vib)   ...       0.01
freq.    1383.49  E(vib)   ...       0.00
freq.    1388.51  E(vib)   ...       0.00
freq.    1390.85  E(vib)   ...       0.00
freq.    1394.45  E(vib)   ...       0.00
freq.    1404.00  E(vib)   ...       0.00
freq.    1405.71  E(vib)   ...       0.00
freq.    1419.99  E(vib)   ...       0.00
freq.    1435.36  E(vib)   ...       0.00
freq.    1438.93  E(vib)   ...       0.00
freq.    1444.37  E(vib)   ...       0.00
freq.    1446.63  E(vib)   ...       0.00
freq.    1450.62  E(vib)   ...       0.00
freq.    1451.33  E(vib)   ...       0.00
freq.    1460.51  E(vib)   ...       0.00
freq.    1461.54  E(vib)   ...       0.00
freq.    1464.66  E(vib)   ...       0.00
freq.    1466.26  E(vib)   ...       0.00
freq.    1469.97  E(vib)   ...       0.00
freq.    1480.30  E(vib)   ...       0.00
freq.    1482.71  E(vib)   ...       0.00
freq.    1657.53  E(vib)   ...       0.00
freq.    3063.01  E(vib)   ...       0.00
freq.    3063.58  E(vib)   ...       0.00
freq.    3064.90  E(vib)   ...       0.00
freq.    3066.68  E(vib)   ...       0.00
freq.    3069.66  E(vib)   ...       0.00
freq.    3076.55  E(vib)   ...       0.00
freq.    3163.88  E(vib)   ...       0.00
freq.    3165.26  E(vib)   ...       0.00
freq.    3167.11  E(vib)   ...       0.00
freq.    3168.29  E(vib)   ...       0.00
freq.    3168.54  E(vib)   ...       0.00
freq.    3170.73  E(vib)   ...       0.00
freq.    3172.64  E(vib)   ...       0.00
freq.    3175.79  E(vib)   ...       0.00
freq.    3177.36  E(vib)   ...       0.00
freq.    3180.98  E(vib)   ...       0.00
freq.    3185.55  E(vib)   ...       0.00
freq.    3188.07  E(vib)   ...       0.00
freq.    3294.23  E(vib)   ...       0.00
freq.    3320.82  E(vib)   ...       0.00

------------
INNER ENERGY
------------

The inner energy is: U= E(el) + E(ZPE) + E(vib) + E(rot) + E(trans)
    E(el)   - is the total energy from the electronic structure calculation
              = E(kin-el) + E(nuc-el) + E(el-el) + E(nuc-nuc)
    E(ZPE)  - the the zero temperature vibrational energy from the frequency calculation
    E(vib)  - the the finite temperature correction to E(ZPE) due to population
              of excited vibrational states
    E(rot)  - is the rotational thermal energy
    E(trans)- is the translational thermal energy

Summary of contributions to the inner energy U:
Electronic energy                ...   -540.18714322 Eh
Zero point energy                ...      0.29714281 Eh     186.46 kcal/mol
Thermal vibrational correction   ...      0.01154473 Eh       7.24 kcal/mol
Thermal rotational correction    ...      0.00141627 Eh       0.89 kcal/mol
Thermal translational correction ...      0.00141627 Eh       0.89 kcal/mol
-----------------------------------------------------------------------
Total thermal energy                   -539.87562314 Eh

Summary of corrections to the electronic energy:
(perhaps to be used in another calculation)
Total thermal correction                  0.01437727 Eh       9.02 kcal/mol
Non-thermal (ZPE) correction              0.29714281 Eh     186.46 kcal/mol
-----------------------------------------------------------------------
Total correction                          0.31152008 Eh     195.48 kcal/mol

--------
ENTHALPY
--------

The enthalpy is H = U + kB*T
                kB is Boltzmann's constant
Total free energy                 ...   -539.87562314 Eh
Thermal Enthalpy correction       ...      0.00094421 Eh       0.59 kcal/mol
-----------------------------------------------------------------------
Total Enthalpy                    ...   -539.87467893 Eh

Note: Only C1 symmetry has been detected, increase convergence thresholds
      if your molecule has a higher symmetry. Symmetry factor of 1.0 is
      used for the rotational entropy correction.

Note: Rotational entropy computed according to Herzberg
Infrared and Raman Spectra, Chapter V,1, Van Nostrand Reinhold, 1945

Rotational constants in cm-1:     0.055832     0.014964     0.013981

                             ****ORCA TERMINATED NORMALLY****
TOTAL RUN TIME: 0 days 0 hours 11 minutes 53 seconds 277 msec
