                         Program Version 5.0.4 -  RELEASE  -
|  1> # ORCA 5.0.4 - /users/bwb16179/postgrad/2024_03/DFT_Crest_Conformers/Opt/deprot/5_deprot_aq_3.inp # write input file
|  2> # Basic Mode
|  3> #
|  4> ! Opt Freq wB97X Def2-SVP D4 SlowConv TightSCF Defgrid2 Def2/J RIJCOSX CPCM(Water)
|  5>
|  6>
|  7>
|  8> %maxcore 4500
|  9>
| 10> %geom
| 11> Maxiter 150
| 12> END
| 13>
| 14> * xyzfile 0 1 5_deprot_aq_3.xyz
| 15>
| 16>                          ****END OF INPUT****
 Total Charge           Charge          ....    0
 Multiplicity           Mult            ....    1
 Number of Electrons    NEL             ....  100
Dispersion correction           -0.005810479
FINAL SINGLE POINT ENERGY      -540.181446816835
Dispersion correction            ... Starting D4
Dispersion correction           -0.005746248
FINAL SINGLE POINT ENERGY      -540.186520160285
Dispersion correction            ... Starting D4
Dispersion correction           -0.005743337
FINAL SINGLE POINT ENERGY      -540.186794635193
Dispersion correction            ... Starting D4
FINAL SINGLE POINT ENERGY      -540.186866677709
Dispersion correction           -0.005741524
FINAL SINGLE POINT ENERGY      -540.186872894920
Dispersion correction            ... Starting D4
Dispersion correction           -0.005741331
FINAL SINGLE POINT ENERGY      -540.186876775536
Dispersion correction            ... Starting D4
                    ***********************HURRAY********************

CARTESIAN COORDINATES (ANGSTROEM)
---------------------------------
  N     -1.065766    0.151390    0.201841
  C     -0.005146   -0.324600   -0.500245
  N      1.069873    0.144685    0.184184
  C      0.691107    0.895931    1.286651
  C     -0.664067    0.900276    1.297769
  C     -2.471660   -0.132396   -0.189940
  C      2.467149   -0.154217   -0.226547
  C     -2.701789    0.405628   -1.603985
  C     -3.434259    0.552033    0.779418
  C     -2.695868   -1.646051   -0.144921
  C      2.675280    0.352792   -1.655317
  C      2.684651   -1.667826   -0.153042
  C      3.450121    0.546370    0.710165
  H      1.389825    1.365725    1.973379
  H     -1.348252    1.375035    1.995610
  H     -2.012597   -2.161701   -0.834328
  H     -3.732147   -1.883926   -0.430895
  H     -2.519819   -2.031246    0.871984
  H     -2.535758    1.494099   -1.635045
  H     -3.736340    0.202365   -1.920947
  H     -2.013160   -0.070468   -2.316168
  H      3.342364    0.200051    1.749507
  H      3.327785    1.640256    0.686057
  H      4.474976    0.314876    0.385094
  H      2.521796   -2.030373    0.874332
  H      3.715273   -1.917557   -0.449242
  H      1.988704   -2.194572   -0.821308
  H     -3.311587    1.646110    0.773187
  H     -3.304816    0.186368    1.809676
  H     -4.465985    0.327422    0.471761
  H      1.972503   -0.134335   -2.345667
  H      3.703346    0.137496   -1.985066
  H      2.514087    1.441217   -1.706483

 Multiplicity           Mult            ....    1
 Number of Electrons    NEL             ....  100
 Basis Dimension        Dim             ....  282

ORBITAL ENERGIES
----------------

  NO   OCC          E(Eh)            E(eV)
   0   2.0000     -14.445159      -393.0728
   1   2.0000     -14.445155      -393.0726
   2   2.0000     -10.316254      -280.7195
   3   2.0000     -10.316234      -280.7190
   4   2.0000     -10.291146      -280.0363
   5   2.0000     -10.290558      -280.0203
   6   2.0000     -10.271222      -279.4942
   7   2.0000     -10.262952      -279.2691
   8   2.0000     -10.262937      -279.2687
   9   2.0000     -10.258359      -279.1442
  10   2.0000     -10.258231      -279.1406
  11   2.0000     -10.258030      -279.1352
  12   2.0000     -10.257963      -279.1334
  13   2.0000      -1.143848       -31.1257
  14   2.0000      -1.040190       -28.3050
  15   2.0000      -0.950681       -25.8693
  16   2.0000      -0.899997       -24.4902
  17   2.0000      -0.864909       -23.5354
  18   2.0000      -0.813168       -22.1274
  19   2.0000      -0.806341       -21.9417
  20   2.0000      -0.805663       -21.9232
  21   2.0000      -0.803465       -21.8634
  22   2.0000      -0.753375       -20.5004
  23   2.0000      -0.718248       -19.5445
  24   2.0000      -0.653499       -17.7826
  25   2.0000      -0.651867       -17.7382
  26   2.0000      -0.617044       -16.7906
  27   2.0000      -0.580724       -15.8023
  28   2.0000      -0.579770       -15.7764
  29   2.0000      -0.560317       -15.2470
  30   2.0000      -0.557183       -15.1617
  31   2.0000      -0.543655       -14.7936
  32   2.0000      -0.535395       -14.5688
  33   2.0000      -0.529185       -14.3999
  34   2.0000      -0.517141       -14.0721
  35   2.0000      -0.498678       -13.5697
  36   2.0000      -0.491799       -13.3825
  37   2.0000      -0.485201       -13.2030
  38   2.0000      -0.480296       -13.0695
  39   2.0000      -0.469745       -12.7824
  40   2.0000      -0.465727       -12.6731
  41   2.0000      -0.465355       -12.6630
  42   2.0000      -0.460629       -12.5343
  43   2.0000      -0.446494       -12.1497
  44   2.0000      -0.438148       -11.9226
  45   2.0000      -0.435568       -11.8524
  46   2.0000      -0.430640       -11.7183
  47   2.0000      -0.369938       -10.0665
  48   2.0000      -0.318994        -8.6803
  49   2.0000      -0.315943        -8.5972
  50   0.0000       0.126264         3.4358
  51   0.0000       0.127488         3.4691
  52   0.0000       0.144432         3.9302
  53   0.0000       0.150249         4.0885
  54   0.0000       0.183706         4.9989

MULLIKEN ATOMIC CHARGES
-----------------------
   0 N :   -0.214128
   1 C :   -0.174144
   2 N :   -0.213928
   3 C :    0.013654
   4 C :    0.013732
   5 C :   -0.177441
   6 C :   -0.177600
   7 C :    0.042762
   8 C :    0.016319
   9 C :    0.042857
  10 C :    0.042690
  11 C :    0.043178
  12 C :    0.016223
  13 H :    0.057218
  14 H :    0.057183
  15 H :    0.025554
  16 H :    0.034571
  17 H :    0.029638
  18 H :    0.029450
  19 H :    0.034130
  20 H :    0.025458
  21 H :    0.041704
  22 H :    0.040961
  23 H :    0.044297
  24 H :    0.029751
  25 H :    0.034663
  26 H :    0.025648
  27 H :    0.041113
  28 H :    0.041498
  29 H :    0.044300
  30 H :    0.025223
  31 H :    0.034051
  32 H :    0.029412
Sum of atomic charges:   -0.0000000

LOEWDIN ATOMIC CHARGES
----------------------
   0 N :    0.035081
   1 C :   -0.296509
   2 N :    0.035092
   3 C :   -0.042537
   4 C :   -0.042507
   5 C :    0.010721
   6 C :    0.010673
   7 C :   -0.050370
   8 C :   -0.052534
   9 C :   -0.050318
  10 C :   -0.050352
  11 C :   -0.050313
  12 C :   -0.052527
  13 H :    0.038929
  14 H :    0.038907
  15 H :    0.022534
  16 H :    0.030880
  17 H :    0.027412
  18 H :    0.027307
  19 H :    0.030712
  20 H :    0.022360
  21 H :    0.030118
  22 H :    0.030213
  23 H :    0.037743
  24 H :    0.027456
  25 H :    0.030926
  26 H :    0.022669
  27 H :    0.030159
  28 H :    0.030169
  29 H :    0.037749
  30 H :    0.022155
  31 H :    0.030685
  32 H :    0.027317

  Mayer bond orders larger than 0.100000
B(  0-N ,  1-C ) :   1.2603 B(  0-N ,  4-C ) :   1.1382 B(  0-N ,  5-C ) :   0.8579
B(  1-C ,  2-N ) :   1.2602 B(  2-N ,  3-C ) :   1.1381 B(  2-N ,  6-C ) :   0.8580
B(  3-C ,  4-C ) :   1.5896 B(  3-C , 13-H ) :   0.9873 B(  4-C , 14-H ) :   0.9872
B(  5-C ,  7-C ) :   1.0410 B(  5-C ,  8-C ) :   1.0655 B(  5-C ,  9-C ) :   1.0408
B(  6-C , 10-C ) :   1.0411 B(  6-C , 11-C ) :   1.0408 B(  6-C , 12-C ) :   1.0654
B(  7-C , 18-H ) :   0.9665 B(  7-C , 19-H ) :   0.9708 B(  7-C , 20-H ) :   0.9608
B(  8-C , 27-H ) :   0.9587 B(  8-C , 28-H ) :   0.9583 B(  8-C , 29-H ) :   0.9654
B(  9-C , 15-H ) :   0.9613 B(  9-C , 16-H ) :   0.9709 B(  9-C , 17-H ) :   0.9665
B( 10-C , 30-H ) :   0.9606 B( 10-C , 31-H ) :   0.9707 B( 10-C , 32-H ) :   0.9665
B( 11-C , 24-H ) :   0.9665 B( 11-C , 25-H ) :   0.9709 B( 11-C , 26-H ) :   0.9614
B( 12-C , 21-H ) :   0.9582 B( 12-C , 22-H ) :   0.9589 B( 12-C , 23-H ) :   0.9654

Dispersion correction           -0.005741071
FINAL SINGLE POINT ENERGY      -540.186879911318

DIPOLE MOMENT
-------------
                                X             Y             Z
Electronic contribution:      0.03641       2.54482       3.51219
Nuclear contribution   :     -0.02519      -1.83399      -2.43909
                        -----------------------------------------
Total Dipole Moment    :      0.01121       0.71083       1.07310
                        -----------------------------------------
Magnitude (a.u.)       :      1.28722
Magnitude (Debye)      :      3.27186

Dispersion correction in the Hessian             ... Starting D4

VIBRATIONAL FREQUENCIES
-----------------------

Scaling factor for frequencies =  1.000000000  (already applied!)

   0:         0.00 cm**-1
   1:         0.00 cm**-1
   2:         0.00 cm**-1
   3:         0.00 cm**-1
   4:         0.00 cm**-1
   5:         0.00 cm**-1
   6:       -28.48 cm**-1 ***imaginary mode***
   7:        21.00 cm**-1
   8:        78.88 cm**-1
   9:       144.87 cm**-1
  10:       174.06 cm**-1
  11:       233.97 cm**-1
  12:       235.92 cm**-1
  13:       265.19 cm**-1
  14:       273.64 cm**-1
  15:       291.80 cm**-1
  16:       306.74 cm**-1
  17:       330.48 cm**-1
  18:       332.05 cm**-1
  19:       334.66 cm**-1
  20:       342.28 cm**-1
  21:       359.84 cm**-1
  22:       366.94 cm**-1
  23:       413.32 cm**-1
  24:       446.33 cm**-1
  25:       466.75 cm**-1
  26:       481.90 cm**-1
  27:       534.72 cm**-1
  28:       582.84 cm**-1
  29:       653.96 cm**-1
  30:       672.93 cm**-1
  31:       689.21 cm**-1
  32:       736.56 cm**-1
  33:       845.66 cm**-1
  34:       855.30 cm**-1
  35:       879.81 cm**-1
  36:       943.50 cm**-1
  37:       944.12 cm**-1
  38:       946.88 cm**-1
  39:       947.27 cm**-1
  40:       955.94 cm**-1
  41:       956.81 cm**-1
  42:      1008.84 cm**-1
  43:      1023.25 cm**-1
  44:      1041.65 cm**-1
  45:      1041.81 cm**-1
  46:      1044.87 cm**-1
  47:      1046.46 cm**-1
  48:      1116.73 cm**-1
  49:      1171.10 cm**-1
  50:      1219.22 cm**-1
  51:      1261.10 cm**-1
  52:      1269.24 cm**-1
  53:      1271.20 cm**-1
  54:      1271.39 cm**-1
  55:      1274.36 cm**-1
  56:      1359.60 cm**-1
  57:      1380.49 cm**-1
  58:      1382.86 cm**-1
  59:      1383.67 cm**-1
  60:      1384.19 cm**-1
  61:      1390.15 cm**-1
  62:      1401.44 cm**-1
  63:      1404.21 cm**-1
  64:      1423.00 cm**-1
  65:      1436.83 cm**-1
  66:      1436.99 cm**-1
  67:      1448.30 cm**-1
  68:      1449.16 cm**-1
  69:      1451.46 cm**-1
  70:      1451.93 cm**-1
  71:      1458.25 cm**-1
  72:      1464.82 cm**-1
  73:      1465.46 cm**-1
  74:      1466.19 cm**-1
  75:      1466.37 cm**-1
  76:      1481.11 cm**-1
  77:      1482.63 cm**-1
  78:      1652.19 cm**-1
  79:      3064.24 cm**-1
  80:      3064.31 cm**-1
  81:      3065.49 cm**-1
  82:      3065.77 cm**-1
  83:      3070.15 cm**-1
  84:      3070.33 cm**-1
  85:      3164.85 cm**-1
  86:      3164.90 cm**-1
  87:      3166.25 cm**-1
  88:      3166.43 cm**-1
  89:      3168.56 cm**-1
  90:      3168.75 cm**-1
  91:      3175.98 cm**-1
  92:      3176.06 cm**-1
  93:      3181.70 cm**-1
  94:      3182.47 cm**-1
  95:      3185.11 cm**-1
  96:      3186.05 cm**-1
  97:      3308.37 cm**-1
  98:      3327.69 cm**-1

IR SPECTRUM
-----------

 Mode   freq       eps      Int      T**2         TX        TY        TZ
       cm**-1   L/(mol*cm) km/mol    a.u.
----------------------------------------------------------------------------
  7:     21.00   0.001112    5.62  0.016523  (-0.000211  0.101471 -0.078909)
  8:     78.88   0.002302   11.64  0.009109  ( 0.000208  0.078282 -0.054602)
  9:    144.87   0.000326    1.65  0.000703  ( 0.000492 -0.016767 -0.020533)
 10:    174.06   0.000003    0.02  0.000006  ( 0.002443 -0.000252  0.000127)
 11:    233.97   0.000027    0.14  0.000036  ( 0.003396  0.003242 -0.003730)
 12:    235.92   0.000018    0.09  0.000023  ( 0.004265 -0.001361  0.001803)
 13:    265.19   0.000708    3.58  0.000833  ( 0.028868  0.000015 -0.000006)
 14:    273.64   0.000020    0.10  0.000022  (-0.003092  0.001209  0.003384)
 15:    291.80   0.000079    0.40  0.000084  ( 0.009177  0.000207  0.000272)
 16:    306.74   0.000157    0.79  0.000160  (-0.000175 -0.010071 -0.007652)
 17:    330.48   0.000010    0.05  0.000009  ( 0.001308  0.002226  0.001592)
 18:    332.05   0.000320    1.62  0.000301  ( 0.000438 -0.004956  0.016620)
 19:    334.66   0.000135    0.68  0.000126  ( 0.000386  0.009123  0.006523)
 20:    342.28   0.001484    7.50  0.001353  ( 0.000081  0.030978 -0.019831)
 21:    359.84   0.000133    0.67  0.000115  (-0.010723  0.000451 -0.000080)
 22:    366.94   0.001006    5.08  0.000856  (-0.029246 -0.000087  0.000399)
 23:    413.32   0.000244    1.23  0.000184  ( 0.013559 -0.000147 -0.000036)
 24:    446.33   0.001618    8.17  0.001131  (-0.000032  0.027735 -0.019020)
 25:    466.75   0.000195    0.99  0.000131  (-0.000121 -0.001972 -0.011257)
 26:    481.90   0.000003    0.01  0.000002  (-0.001367  0.000017 -0.000020)
 27:    534.72   0.002697   13.63  0.001574  ( 0.039669  0.000153 -0.000690)
 28:    582.84   0.000244    1.23  0.000130  (-0.000040  0.006884  0.009114)
 29:    653.96   0.004337   21.92  0.002069  (-0.045489  0.000324  0.000256)
 30:    672.93   0.000001    0.01  0.000001  (-0.000706 -0.000126  0.000117)
 31:    689.21   0.002678   13.53  0.001212  ( 0.000123  0.028929 -0.019379)
 32:    736.56   0.015237   77.00  0.006456  (-0.000170  0.066380 -0.045269)
 33:    845.66   0.000075    0.38  0.000028  (-0.000034 -0.003695 -0.003731)
 34:    855.30   0.000590    2.98  0.000215  (-0.014676  0.000084  0.000009)
 35:    879.81   0.000000    0.00  0.000000  ( 0.000362 -0.000065  0.000098)
 36:    943.50   0.000124    0.63  0.000041  (-0.003913  0.003136 -0.003996)
 37:    944.12   0.000498    2.52  0.000165  ( 0.001834  0.007941 -0.009913)
 38:    946.88   0.000804    4.06  0.000265  ( 0.015123  0.004719  0.003733)
 39:    947.27   0.000595    3.01  0.000196  (-0.007470  0.009244  0.007399)
 40:    955.94   0.000023    0.12  0.000008  (-0.002565 -0.000833 -0.000603)
 41:    956.81   0.000027    0.14  0.000009  ( 0.002449 -0.001246 -0.001134)
 42:   1008.84   0.003753   18.97  0.001161  (-0.034072  0.000234  0.000290)
 43:   1023.25   0.000590    2.98  0.000180  ( 0.000120  0.007619  0.011039)
 44:   1041.65   0.000001    0.01  0.000000  (-0.000124  0.000111  0.000563)
 45:   1041.81   0.000010    0.05  0.000003  ( 0.000542  0.000814 -0.001415)
 46:   1044.87   0.000082    0.42  0.000025  ( 0.002482  0.003140  0.002922)
 47:   1046.46   0.000253    1.28  0.000076  ( 0.008600 -0.000835 -0.000947)
 48:   1116.73   0.005635   28.48  0.001575  ( 0.000774  0.022347  0.032784)
 49:   1171.10   0.000761    3.84  0.000203  ( 0.014235 -0.000183 -0.000093)
 50:   1219.22   0.001752    8.85  0.000448  (-0.000119 -0.012249 -0.017273)
 51:   1261.10   0.000726    3.67  0.000180  (-0.000915  0.009419  0.009490)
 52:   1269.24   0.044704  225.91  0.010991  ( 0.104811 -0.002300  0.000673)
 53:   1271.20   0.004386   22.16  0.001077  ( 0.016361 -0.023308  0.016299)
 54:   1271.39   0.007334   37.06  0.001800  ( 0.037392  0.016061 -0.012005)
 55:   1274.36   0.005485   27.72  0.001343  (-0.036629  0.001121 -0.000509)
 56:   1359.60   0.000626    3.16  0.000144  (-0.011977 -0.000056  0.000453)
 57:   1380.49   0.006334   32.01  0.001432  ( 0.000420  0.027023  0.026483)
 58:   1382.86   0.002025   10.24  0.000457  (-0.000008  0.006242 -0.020448)
 59:   1383.67   0.000043    0.22  0.000010  ( 0.001827  0.002172 -0.001244)
 60:   1384.19   0.009486   47.94  0.002139  (-0.000028  0.037518 -0.027036)
 61:   1390.15   0.000003    0.01  0.000001  (-0.000409 -0.000515  0.000407)
 62:   1401.44   0.000598    3.02  0.000133  (-0.003287  0.004915  0.009914)
 63:   1404.21   0.005998   30.31  0.001333  (-0.036503 -0.000313 -0.000664)
 64:   1423.00   0.015668   79.18  0.003436  (-0.000209 -0.032429 -0.048829)
 65:   1436.83   0.000041    0.21  0.000009  (-0.002539  0.001564 -0.000227)
 66:   1436.99   0.000070    0.36  0.000015  ( 0.000864  0.003497 -0.001523)
 67:   1448.30   0.000073    0.37  0.000016  ( 0.002601 -0.002918 -0.000746)
 68:   1449.16   0.000053    0.27  0.000011  (-0.002005 -0.002667 -0.000581)
 69:   1451.46   0.000416    2.10  0.000089  ( 0.009397  0.000559  0.000898)
 70:   1451.93   0.000205    1.04  0.000044  ( 0.002296 -0.003701 -0.005005)
 71:   1458.25   0.004102   20.73  0.000878  (-0.029623 -0.000424  0.000336)
 72:   1464.82   0.004329   21.88  0.000922  (-0.028564 -0.008075  0.006422)
 73:   1465.46   0.001326    6.70  0.000282  ( 0.008936 -0.011111  0.008890)
 74:   1466.19   0.000755    3.82  0.000161  ( 0.004283  0.010687 -0.005304)
 75:   1466.37   0.012467   63.00  0.002653  (-0.051306  0.003953 -0.002292)
 76:   1481.11   0.000016    0.08  0.000003  ( 0.001736 -0.000551 -0.000245)
 77:   1482.63   0.000077    0.39  0.000016  ( 0.000072  0.003157  0.002483)
 78:   1652.19   0.000305    1.54  0.000058  (-0.000002 -0.004378 -0.006202)
 79:   3064.24   0.007985   40.35  0.000813  ( 0.001388 -0.026489  0.010468)
 80:   3064.31   0.004708   23.79  0.000479  (-0.001040 -0.019152  0.010565)
 81:   3065.49   0.003313   16.74  0.000337  (-0.001229 -0.005958 -0.017327)
 82:   3065.77   0.004317   21.82  0.000439  (-0.000089 -0.002577 -0.020803)
 83:   3070.15   0.003258   16.46  0.000331  (-0.017897  0.002451  0.002197)
 84:   3070.33   0.001406    7.11  0.000143  ( 0.010534  0.005433  0.001558)
 85:   3164.85   0.002035   10.28  0.000201  ( 0.004431 -0.007157  0.011393)
 86:   3164.90   0.001925    9.73  0.000190  ( 0.006072  0.005232 -0.011206)
 87:   3166.25   0.005147   26.01  0.000507  (-0.015535 -0.010046 -0.012844)
 88:   3166.43   0.004850   24.51  0.000478  ( 0.014042 -0.011119 -0.012536)
 89:   3168.56   0.006891   34.82  0.000679  (-0.001468 -0.022175  0.013593)
 90:   3168.75   0.006788   34.30  0.000668  (-0.001739  0.021704 -0.013941)
 91:   3175.98   0.006659   33.65  0.000654  ( 0.023194 -0.006346 -0.008723)
 92:   3176.06   0.007017   35.46  0.000689  ( 0.010360  0.013901  0.019720)
 93:   3181.70   0.002252   11.38  0.000221  ( 0.013302 -0.001553  0.006446)
 94:   3182.47   0.000915    4.62  0.000090  ( 0.007531  0.003119 -0.004822)
 95:   3185.11   0.007909   39.97  0.000775  (-0.026004  0.006349  0.007639)
 96:   3186.05   0.005072   25.63  0.000497  ( 0.019395  0.008468  0.006992)
 97:   3308.37   0.002695   13.62  0.000254  (-0.015943  0.000044  0.000138)
 98:   3327.69   0.000203    1.03  0.000019  ( 0.000248 -0.002469 -0.003594)

--------------------------
THERMOCHEMISTRY AT 298.15K
--------------------------

Temperature         ... 298.15 K
Pressure            ... 1.00 atm
Total Mass          ... 180.30 AMU

Throughout the following assumptions are being made:
  (1) The electronic state is orbitally nondegenerate
  (2) There are no thermally accessible electronically excited states
  (3) Hindered rotations indicated by low frequency modes are not
      treated as such but are treated as vibrations and this may
      cause some error
  (4) All equations used are the standard statistical mechanics
      equations for an ideal gas
  (5) All vibrations are strictly harmonic

freq.      21.00  E(vib)   ...       0.56
freq.      78.88  E(vib)   ...       0.49
freq.     144.87  E(vib)   ...       0.41
freq.     174.06  E(vib)   ...       0.38
freq.     233.97  E(vib)   ...       0.32
freq.     235.92  E(vib)   ...       0.32
freq.     265.19  E(vib)   ...       0.29
freq.     273.64  E(vib)   ...       0.29
freq.     291.80  E(vib)   ...       0.27
freq.     306.74  E(vib)   ...       0.26
freq.     330.48  E(vib)   ...       0.24
freq.     332.05  E(vib)   ...       0.24
freq.     334.66  E(vib)   ...       0.24
freq.     342.28  E(vib)   ...       0.23
freq.     359.84  E(vib)   ...       0.22
freq.     366.94  E(vib)   ...       0.22
freq.     413.32  E(vib)   ...       0.19
freq.     446.33  E(vib)   ...       0.17
freq.     466.75  E(vib)   ...       0.16
freq.     481.90  E(vib)   ...       0.15
freq.     534.72  E(vib)   ...       0.13
freq.     582.84  E(vib)   ...       0.11
freq.     653.96  E(vib)   ...       0.08
freq.     672.93  E(vib)   ...       0.08
freq.     689.21  E(vib)   ...       0.07
freq.     736.56  E(vib)   ...       0.06
freq.     845.66  E(vib)   ...       0.04
freq.     855.30  E(vib)   ...       0.04
freq.     879.81  E(vib)   ...       0.04
freq.     943.50  E(vib)   ...       0.03
freq.     944.12  E(vib)   ...       0.03
freq.     946.88  E(vib)   ...       0.03
freq.     947.27  E(vib)   ...       0.03
freq.     955.94  E(vib)   ...       0.03
freq.     956.81  E(vib)   ...       0.03
freq.    1008.84  E(vib)   ...       0.02
freq.    1023.25  E(vib)   ...       0.02
freq.    1041.65  E(vib)   ...       0.02
freq.    1041.81  E(vib)   ...       0.02
freq.    1044.87  E(vib)   ...       0.02
freq.    1046.46  E(vib)   ...       0.02
freq.    1116.73  E(vib)   ...       0.01
freq.    1171.10  E(vib)   ...       0.01
freq.    1219.22  E(vib)   ...       0.01
freq.    1261.10  E(vib)   ...       0.01
freq.    1269.24  E(vib)   ...       0.01
freq.    1271.20  E(vib)   ...       0.01
freq.    1271.39  E(vib)   ...       0.01
freq.    1274.36  E(vib)   ...       0.01
freq.    1359.60  E(vib)   ...       0.01
freq.    1380.49  E(vib)   ...       0.01
freq.    1382.86  E(vib)   ...       0.01
freq.    1383.67  E(vib)   ...       0.00
freq.    1384.19  E(vib)   ...       0.00
freq.    1390.15  E(vib)   ...       0.00
freq.    1401.44  E(vib)   ...       0.00
freq.    1404.21  E(vib)   ...       0.00
freq.    1423.00  E(vib)   ...       0.00
freq.    1436.83  E(vib)   ...       0.00
freq.    1436.99  E(vib)   ...       0.00
freq.    1448.30  E(vib)   ...       0.00
freq.    1449.16  E(vib)   ...       0.00
freq.    1451.46  E(vib)   ...       0.00
freq.    1451.93  E(vib)   ...       0.00
freq.    1458.25  E(vib)   ...       0.00
freq.    1464.82  E(vib)   ...       0.00
freq.    1465.46  E(vib)   ...       0.00
freq.    1466.19  E(vib)   ...       0.00
freq.    1466.37  E(vib)   ...       0.00
freq.    1481.11  E(vib)   ...       0.00
freq.    1482.63  E(vib)   ...       0.00
freq.    1652.19  E(vib)   ...       0.00
freq.    3064.24  E(vib)   ...       0.00
freq.    3064.31  E(vib)   ...       0.00
freq.    3065.49  E(vib)   ...       0.00
freq.    3065.77  E(vib)   ...       0.00
freq.    3070.15  E(vib)   ...       0.00
freq.    3070.33  E(vib)   ...       0.00
freq.    3164.85  E(vib)   ...       0.00
freq.    3164.90  E(vib)   ...       0.00
freq.    3166.25  E(vib)   ...       0.00
freq.    3166.43  E(vib)   ...       0.00
freq.    3168.56  E(vib)   ...       0.00
freq.    3168.75  E(vib)   ...       0.00
freq.    3175.98  E(vib)   ...       0.00
freq.    3176.06  E(vib)   ...       0.00
freq.    3181.70  E(vib)   ...       0.00
freq.    3182.47  E(vib)   ...       0.00
freq.    3185.11  E(vib)   ...       0.00
freq.    3186.05  E(vib)   ...       0.00
freq.    3308.37  E(vib)   ...       0.00
freq.    3327.69  E(vib)   ...       0.00

------------
INNER ENERGY
------------

The inner energy is: U= E(el) + E(ZPE) + E(vib) + E(rot) + E(trans)
    E(el)   - is the total energy from the electronic structure calculation
              = E(kin-el) + E(nuc-el) + E(el-el) + E(nuc-nuc)
    E(ZPE)  - the the zero temperature vibrational energy from the frequency calculation
    E(vib)  - the the finite temperature correction to E(ZPE) due to population
              of excited vibrational states
    E(rot)  - is the rotational thermal energy
    E(trans)- is the translational thermal energy

Summary of contributions to the inner energy U:
Electronic energy                ...   -540.18687991 Eh
Zero point energy                ...      0.29696401 Eh     186.35 kcal/mol
Thermal vibrational correction   ...      0.01072689 Eh       6.73 kcal/mol
Thermal rotational correction    ...      0.00141627 Eh       0.89 kcal/mol
Thermal translational correction ...      0.00141627 Eh       0.89 kcal/mol
-----------------------------------------------------------------------
Total thermal energy                   -539.87635646 Eh

Summary of corrections to the electronic energy:
(perhaps to be used in another calculation)
Total thermal correction                  0.01355944 Eh       8.51 kcal/mol
Non-thermal (ZPE) correction              0.29696401 Eh     186.35 kcal/mol
-----------------------------------------------------------------------
Total correction                          0.31052345 Eh     194.86 kcal/mol

--------
ENTHALPY
--------

The enthalpy is H = U + kB*T
                kB is Boltzmann's constant
Total free energy                 ...   -539.87635646 Eh
Thermal Enthalpy correction       ...      0.00094421 Eh       0.59 kcal/mol
-----------------------------------------------------------------------
Total Enthalpy                    ...   -539.87541225 Eh

Note: Only C1 symmetry has been detected, increase convergence thresholds
      if your molecule has a higher symmetry. Symmetry factor of 1.0 is
      used for the rotational entropy correction.

Note: Rotational entropy computed according to Herzberg
Infrared and Raman Spectra, Chapter V,1, Van Nostrand Reinhold, 1945
Point Group:  C1, Symmetry Number:   1
Rotational constants in cm-1:     0.055507     0.015061     0.014048

                             ****ORCA TERMINATED NORMALLY****
TOTAL RUN TIME: 0 days 1 hours 45 minutes 24 seconds 251 msec
