                         Program Version 5.0.4 -  RELEASE  -
|  1> # ORCA 5.0.4 - /users/bwb16179/postgrad/2024_03/DFT_Crest_Conformers/Opt/deprot/5_deprot_aq_2.inp # write input file
|  2> # Basic Mode
|  3> #
|  4> ! Opt Freq wB97X Def2-SVP D4 SlowConv TightSCF Defgrid2 Def2/J RIJCOSX CPCM(Water)
|  5>
|  6>
|  7>
|  8> %maxcore 4500
|  9>
| 10> %geom
| 11> Maxiter 150
| 12> END
| 13>
| 14> * xyzfile 0 1 5_deprot_aq_2.xyz
| 15>
| 16>                          ****END OF INPUT****
 Total Charge           Charge          ....    0
 Multiplicity           Mult            ....    1
 Number of Electrons    NEL             ....  100
Dispersion correction           -0.005783947
FINAL SINGLE POINT ENERGY      -540.181411873583
Dispersion correction            ... Starting D4
Dispersion correction           -0.005721776
FINAL SINGLE POINT ENERGY      -540.186436912083
Dispersion correction            ... Starting D4
Dispersion correction           -0.005725030
FINAL SINGLE POINT ENERGY      -540.186751986849
Dispersion correction            ... Starting D4
FINAL SINGLE POINT ENERGY      -540.186838797621
FINAL SINGLE POINT ENERGY      -540.186853569188
Dispersion correction           -0.005723820
FINAL SINGLE POINT ENERGY      -540.186851394504
Dispersion correction            ... Starting D4
Dispersion correction           -0.005723774
FINAL SINGLE POINT ENERGY      -540.186849551781
Dispersion correction            ... Starting D4
                    ***********************HURRAY********************

CARTESIAN COORDINATES (ANGSTROEM)
---------------------------------
  N     -1.065190    0.161474    0.065745
  C      0.016328   -0.565600   -0.317743
  N      1.069103    0.196314    0.086435
  C      0.653673    1.357041    0.723134
  C     -0.699649    1.338584    0.703612
  C     -2.481305   -0.202825   -0.182014
  C      2.487971   -0.225248   -0.028233
  C     -3.100171    0.848155   -1.110364
  C     -3.224633   -0.235006    1.157300
  C     -2.562410   -1.577092   -0.840847
  C      3.381049    1.010752   -0.167335
  C      2.661404   -1.102758   -1.267652
  C      2.863773   -1.009632    1.232751
  H      1.333214    2.101033    1.131556
  H     -1.415267    2.066235    1.082139
  H     -2.124149   -2.354348   -0.198510
  H     -2.032275   -1.593321   -1.803065
  H     -3.621408   -1.820780   -1.016704
  H     -3.080413    1.850717   -0.655718
  H     -4.149951    0.593456   -1.321755
  H     -2.552854    0.887713   -2.065166
  H      2.222368   -1.898777    1.335134
  H      2.741561   -0.385479    2.132410
  H      3.913297   -1.339084    1.182712
  H      2.053226   -2.013872   -1.203038
  H      3.720170   -1.388703   -1.361505
  H      2.364854   -0.556426   -2.176551
  H     -3.204052    0.745047    1.657799
  H     -2.776192   -0.980146    1.832922
  H     -4.278551   -0.505907    0.992242
  H      3.061521    1.634757   -1.016869
  H      4.416882    0.688575   -0.350232
  H      3.385507    1.629636    0.742227

 Multiplicity           Mult            ....    1
 Number of Electrons    NEL             ....  100
 Basis Dimension        Dim             ....  282

ORBITAL ENERGIES
----------------

  NO   OCC          E(Eh)            E(eV)
   0   2.0000     -14.444653      -393.0590
   1   2.0000     -14.443834      -393.0367
   2   2.0000     -10.316079      -280.7148
   3   2.0000     -10.316009      -280.7129
   4   2.0000     -10.291672      -280.0506
   5   2.0000     -10.290548      -280.0200
   6   2.0000     -10.271572      -279.5037
   7   2.0000     -10.262274      -279.2507
   8   2.0000     -10.261383      -279.2264
   9   2.0000     -10.261131      -279.2196
  10   2.0000     -10.260098      -279.1914
  11   2.0000     -10.257521      -279.1213
  12   2.0000     -10.256945      -279.1057
  13   2.0000      -1.143263       -31.1098
  14   2.0000      -1.040427       -28.3115
  15   2.0000      -0.950220       -25.8568
  16   2.0000      -0.899238       -24.4695
  17   2.0000      -0.864044       -23.5118
  18   2.0000      -0.810352       -22.0508
  19   2.0000      -0.808325       -21.9956
  20   2.0000      -0.806995       -21.9595
  21   2.0000      -0.802573       -21.8391
  22   2.0000      -0.754984       -20.5442
  23   2.0000      -0.717049       -19.5119
  24   2.0000      -0.655574       -17.8391
  25   2.0000      -0.649340       -17.6694
  26   2.0000      -0.615767       -16.7559
  27   2.0000      -0.580843       -15.8055
  28   2.0000      -0.578246       -15.7349
  29   2.0000      -0.557739       -15.1769
  30   2.0000      -0.553584       -15.0638
  31   2.0000      -0.551354       -15.0031
  32   2.0000      -0.531960       -14.4754
  33   2.0000      -0.528380       -14.3780
  34   2.0000      -0.524720       -14.2783
  35   2.0000      -0.500581       -13.6215
  36   2.0000      -0.489422       -13.3178
  37   2.0000      -0.482083       -13.1181
  38   2.0000      -0.479526       -13.0486
  39   2.0000      -0.472495       -12.8572
  40   2.0000      -0.465238       -12.6598
  41   2.0000      -0.464889       -12.6503
  42   2.0000      -0.460848       -12.5403
  43   2.0000      -0.446201       -12.1418
  44   2.0000      -0.437137       -11.8951
  45   2.0000      -0.434114       -11.8128
  46   2.0000      -0.429697       -11.6927
  47   2.0000      -0.367166        -9.9911
  48   2.0000      -0.322519        -8.7762
  49   2.0000      -0.313982        -8.5439
  50   0.0000       0.124391         3.3849
  51   0.0000       0.128465         3.4957
  52   0.0000       0.142780         3.8852
  53   0.0000       0.150199         4.0871
  54   0.0000       0.182086         4.9548

MULLIKEN ATOMIC CHARGES
-----------------------
   0 N :   -0.198885
   1 C :   -0.193269
   2 N :   -0.211058
   3 C :    0.020677
   4 C :    0.013675
   5 C :   -0.210793
   6 C :   -0.192144
   7 C :    0.037269
   8 C :    0.031706
   9 C :    0.074132
  10 C :    0.012741
  11 C :    0.053025
  12 C :    0.049552
  13 H :    0.054449
  14 H :    0.063866
  15 H :    0.021333
  16 H :    0.022335
  17 H :    0.033408
  18 H :    0.033194
  19 H :    0.038794
  20 H :    0.034099
  21 H :    0.028929
  22 H :    0.030759
  23 H :    0.036451
  24 H :    0.025900
  25 H :    0.033039
  26 H :    0.024366
  27 H :    0.033987
  28 H :    0.035666
  29 H :    0.039199
  30 H :    0.039008
  31 H :    0.042061
  32 H :    0.042529
Sum of atomic charges:   -0.0000000

LOEWDIN ATOMIC CHARGES
----------------------
   0 N :    0.033841
   1 C :   -0.300724
   2 N :    0.030198
   3 C :   -0.035713
   4 C :   -0.038760
   5 C :    0.007196
   6 C :    0.008894
   7 C :   -0.050925
   8 C :   -0.051070
   9 C :   -0.047004
  10 C :   -0.052177
  11 C :   -0.048959
  12 C :   -0.050454
  13 H :    0.038505
  14 H :    0.038315
  15 H :    0.024494
  16 H :    0.023857
  17 H :    0.030812
  18 H :    0.027422
  19 H :    0.033443
  20 H :    0.028948
  21 H :    0.026228
  22 H :    0.027172
  23 H :    0.032060
  24 H :    0.021760
  25 H :    0.030207
  26 H :    0.026256
  27 H :    0.027500
  28 H :    0.029433
  29 H :    0.034023
  30 H :    0.030499
  31 H :    0.036226
  32 H :    0.028497

  Mayer bond orders larger than 0.100000
B(  0-N ,  1-C ) :   1.2591 B(  0-N ,  4-C ) :   1.1213 B(  0-N ,  5-C ) :   0.8728
B(  1-C ,  2-N ) :   1.2407 B(  2-N ,  3-C ) :   1.1265 B(  2-N ,  6-C ) :   0.8700
B(  3-C ,  4-C ) :   1.6315 B(  3-C , 13-H ) :   0.9892 B(  4-C , 14-H ) :   0.9849
B(  5-C ,  7-C ) :   1.0409 B(  5-C ,  8-C ) :   1.0417 B(  5-C ,  9-C ) :   1.0626
B(  6-C , 10-C ) :   1.0501 B(  6-C , 11-C ) :   1.0505 B(  6-C , 12-C ) :   1.0393
B(  7-C , 18-H ) :   0.9630 B(  7-C , 19-H ) :   0.9712 B(  7-C , 20-H ) :   0.9667
B(  8-C , 27-H ) :   0.9632 B(  8-C , 28-H ) :   0.9669 B(  8-C , 29-H ) :   0.9708
B(  9-C , 15-H ) :   0.9562 B(  9-C , 16-H ) :   0.9546 B(  9-C , 17-H ) :   0.9652
B( 10-C , 30-H ) :   0.9659 B( 10-C , 31-H ) :   0.9678 B( 10-C , 32-H ) :   0.9616
B( 11-C , 24-H ) :   0.9559 B( 11-C , 25-H ) :   0.9673 B( 11-C , 26-H ) :   0.9644
B( 12-C , 21-H ) :   0.9650 B( 12-C , 22-H ) :   0.9641 B( 12-C , 23-H ) :   0.9722

Dispersion correction           -0.005723783
FINAL SINGLE POINT ENERGY      -540.186843009931

DIPOLE MOMENT
-------------
                                X             Y             Z
Electronic contribution:     -0.01116       3.40931       1.63109
Nuclear contribution   :     -0.01948      -2.26450      -0.99916
                        -----------------------------------------
Total Dipole Moment    :     -0.03063       1.14481       0.63193
                        -----------------------------------------
Magnitude (a.u.)       :      1.30800
Magnitude (Debye)      :      3.32468

Dispersion correction in the Hessian             ... Starting D4

VIBRATIONAL FREQUENCIES
-----------------------

Scaling factor for frequencies =  1.000000000  (already applied!)

   0:         0.00 cm**-1
   1:         0.00 cm**-1
   2:         0.00 cm**-1
   3:         0.00 cm**-1
   4:         0.00 cm**-1
   5:         0.00 cm**-1
   6:       -15.39 cm**-1 ***imaginary mode***
   7:        19.95 cm**-1
   8:       112.02 cm**-1
   9:       145.81 cm**-1
  10:       166.18 cm**-1
  11:       223.91 cm**-1
  12:       227.77 cm**-1
  13:       266.58 cm**-1
  14:       271.59 cm**-1
  15:       279.61 cm**-1
  16:       287.99 cm**-1
  17:       300.58 cm**-1
  18:       316.88 cm**-1
  19:       339.53 cm**-1
  20:       352.72 cm**-1
  21:       364.05 cm**-1
  22:       372.52 cm**-1
  23:       414.87 cm**-1
  24:       451.36 cm**-1
  25:       474.21 cm**-1
  26:       478.15 cm**-1
  27:       533.46 cm**-1
  28:       582.39 cm**-1
  29:       656.93 cm**-1
  30:       678.66 cm**-1
  31:       685.62 cm**-1
  32:       757.26 cm**-1
  33:       845.74 cm**-1
  34:       855.55 cm**-1
  35:       892.80 cm**-1
  36:       941.41 cm**-1
  37:       944.78 cm**-1
  38:       948.55 cm**-1
  39:       949.73 cm**-1
  40:       958.80 cm**-1
  41:       961.82 cm**-1
  42:      1005.40 cm**-1
  43:      1023.87 cm**-1
  44:      1038.69 cm**-1
  45:      1042.90 cm**-1
  46:      1047.11 cm**-1
  47:      1047.78 cm**-1
  48:      1114.94 cm**-1
  49:      1167.76 cm**-1
  50:      1217.44 cm**-1
  51:      1257.41 cm**-1
  52:      1260.38 cm**-1
  53:      1268.97 cm**-1
  54:      1272.34 cm**-1
  55:      1279.87 cm**-1
  56:      1362.76 cm**-1
  57:      1377.83 cm**-1
  58:      1387.71 cm**-1
  59:      1388.56 cm**-1
  60:      1388.74 cm**-1
  61:      1398.39 cm**-1
  62:      1403.66 cm**-1
  63:      1404.84 cm**-1
  64:      1418.36 cm**-1
  65:      1437.65 cm**-1
  66:      1438.26 cm**-1
  67:      1441.47 cm**-1
  68:      1444.32 cm**-1
  69:      1445.23 cm**-1
  70:      1446.81 cm**-1
  71:      1459.64 cm**-1
  72:      1460.52 cm**-1
  73:      1462.36 cm**-1
  74:      1468.70 cm**-1
  75:      1474.13 cm**-1
  76:      1478.43 cm**-1
  77:      1482.20 cm**-1
  78:      1661.13 cm**-1
  79:      3059.86 cm**-1
  80:      3063.49 cm**-1
  81:      3066.37 cm**-1
  82:      3068.38 cm**-1
  83:      3073.89 cm**-1
  84:      3076.06 cm**-1
  85:      3162.93 cm**-1
  86:      3167.20 cm**-1
  87:      3167.61 cm**-1
  88:      3168.28 cm**-1
  89:      3169.40 cm**-1
  90:      3170.20 cm**-1
  91:      3171.17 cm**-1
  92:      3171.92 cm**-1
  93:      3175.68 cm**-1
  94:      3176.74 cm**-1
  95:      3187.49 cm**-1
  96:      3196.70 cm**-1
  97:      3292.01 cm**-1
  98:      3316.48 cm**-1

IR SPECTRUM
-----------

 Mode   freq       eps      Int      T**2         TX        TY        TZ
       cm**-1   L/(mol*cm) km/mol    a.u.
----------------------------------------------------------------------------
  7:     19.95   0.000177    0.89  0.002768  ( 0.006914 -0.025905  0.045267)
  8:    112.02   0.003443   17.40  0.009591  (-0.004577 -0.044436  0.087151)
  9:    145.81   0.000407    2.06  0.000871  ( 0.001773  0.029294  0.003150)
 10:    166.18   0.000095    0.48  0.000178  (-0.003416  0.010508 -0.007449)
 11:    223.91   0.000015    0.08  0.000021  (-0.003959  0.001787  0.001517)
 12:    227.77   0.000069    0.35  0.000094  (-0.001140  0.005698 -0.007779)
 13:    266.58   0.000107    0.54  0.000125  (-0.010865  0.002676  0.000213)
 14:    271.59   0.000145    0.74  0.000167  ( 0.012609  0.002353 -0.001627)
 15:    279.61   0.000009    0.05  0.000010  (-0.003111  0.000734  0.000268)
 16:    287.99   0.000268    1.35  0.000290  ( 0.016991 -0.001152  0.000597)
 17:    300.58   0.000011    0.06  0.000011  ( 0.001011  0.001302 -0.002938)
 18:    316.88   0.000225    1.13  0.000221  ( 0.007636  0.008455 -0.009557)
 19:    339.53   0.000786    3.97  0.000722  ( 0.002159  0.020785 -0.016901)
 20:    352.72   0.000779    3.94  0.000690  (-0.000976  0.002225 -0.026148)
 21:    364.05   0.000048    0.24  0.000041  (-0.005338  0.001353  0.003291)
 22:    372.52   0.001133    5.72  0.000949  ( 0.030502 -0.000151  0.004310)
 23:    414.87   0.000252    1.27  0.000190  ( 0.013230  0.001699 -0.003436)
 24:    451.36   0.001891    9.55  0.001307  (-0.004579 -0.017097  0.031525)
 25:    474.21   0.000087    0.44  0.000057  (-0.003350 -0.005297 -0.004246)
 26:    478.15   0.000173    0.88  0.000113  ( 0.001004 -0.008802 -0.005876)
 27:    533.46   0.001995   10.08  0.001167  (-0.034152  0.000389 -0.000889)
 28:    582.39   0.000295    1.49  0.000158  ( 0.000345  0.011566  0.004933)
 29:    656.93   0.004618   23.34  0.002194  (-0.046725 -0.002595  0.001917)
 30:    678.66   0.001900    9.60  0.000874  (-0.001339  0.013659 -0.026178)
 31:    685.62   0.000002    0.01  0.000001  ( 0.000690  0.000669 -0.000295)
 32:    757.26   0.014256   72.04  0.005875  ( 0.002456 -0.036147  0.067543)
 33:    845.74   0.000067    0.34  0.000025  ( 0.003227  0.003707  0.000849)
 34:    855.55   0.000934    4.72  0.000341  ( 0.018321 -0.001209  0.001919)
 35:    892.80   0.000026    0.13  0.000009  (-0.002850  0.000463  0.000814)
 36:    941.41   0.000269    1.36  0.000089  ( 0.001670  0.003902 -0.008440)
 37:    944.78   0.000449    2.27  0.000148  ( 0.007606  0.007229 -0.006169)
 38:    948.55   0.000484    2.45  0.000159  (-0.000953 -0.008396 -0.009379)
 39:    949.73   0.000292    1.48  0.000096  ( 0.001093  0.009007  0.003687)
 40:    958.80   0.000047    0.24  0.000015  ( 0.000241  0.002828 -0.002701)
 41:    961.82   0.000047    0.24  0.000015  ( 0.002006  0.003150  0.001208)
 42:   1005.40   0.003287   16.61  0.001020  ( 0.031936 -0.000614 -0.000142)
 43:   1023.87   0.000567    2.86  0.000173  ( 0.000272  0.011535  0.006293)
 44:   1038.69   0.000041    0.21  0.000012  ( 0.003117  0.001579  0.000276)
 45:   1042.90   0.000011    0.06  0.000003  (-0.000320  0.001432  0.001104)
 46:   1047.11   0.000134    0.68  0.000040  ( 0.000847  0.003756 -0.005025)
 47:   1047.78   0.000196    0.99  0.000058  ( 0.004670  0.005972 -0.000924)
 48:   1114.94   0.004963   25.08  0.001389  (-0.002158  0.032422  0.018258)
 49:   1167.76   0.001348    6.81  0.000360  ( 0.018703 -0.001153 -0.003004)
 50:   1217.44   0.001017    5.14  0.000261  ( 0.000214 -0.015318 -0.005091)
 51:   1257.41   0.012845   64.92  0.003188  ( 0.054725 -0.013870  0.000865)
 52:   1260.38   0.018921   95.62  0.004685  (-0.067468 -0.002652 -0.011217)
 53:   1268.97   0.002686   13.58  0.000661  (-0.004640 -0.012950  0.021711)
 54:   1272.34   0.003711   18.76  0.000910  (-0.009129 -0.012301  0.025993)
 55:   1279.87   0.028961  146.36  0.007062  (-0.084004 -0.001761  0.001346)
 56:   1362.76   0.001786    9.03  0.000409  ( 0.019845 -0.002711 -0.002804)
 57:   1377.83   0.000468    2.37  0.000106  (-0.005310 -0.008656 -0.001728)
 58:   1387.71   0.004621   23.35  0.001039  (-0.002712 -0.031920 -0.003602)
 59:   1388.56   0.010245   51.78  0.002303  (-0.001377 -0.013526  0.046018)
 60:   1388.74   0.002108   10.65  0.000474  ( 0.000027 -0.020147 -0.008235)
 61:   1398.39   0.000439    2.22  0.000098  (-0.007033 -0.005200 -0.004638)
 62:   1403.66   0.002897   14.64  0.000644  ( 0.025227  0.001454 -0.002338)
 63:   1404.84   0.001510    7.63  0.000335  ( 0.017208 -0.002873 -0.005564)
 64:   1418.36   0.012073   61.01  0.002656  ( 0.003851  0.046547  0.021790)
 65:   1437.65   0.000135    0.68  0.000029  ( 0.001259 -0.001032  0.005167)
 66:   1438.26   0.000263    1.33  0.000057  ( 0.006124 -0.003936  0.002021)
 67:   1441.47   0.000162    0.82  0.000035  (-0.001970  0.005516  0.000893)
 68:   1444.32   0.000014    0.07  0.000003  ( 0.001080 -0.000375 -0.001313)
 69:   1445.23   0.000006    0.03  0.000001  ( 0.001052 -0.000224  0.000280)
 70:   1446.81   0.000089    0.45  0.000019  ( 0.001273 -0.003527  0.002283)
 71:   1459.64   0.007686   38.84  0.001643  ( 0.038529  0.004545 -0.011752)
 72:   1460.52   0.009214   46.56  0.001969  ( 0.043889 -0.005618  0.003317)
 73:   1462.36   0.000346    1.75  0.000074  (-0.006437  0.005639 -0.000785)
 74:   1468.70   0.001323    6.69  0.000281  ( 0.012984 -0.009699 -0.004301)
 75:   1474.13   0.005652   28.56  0.001197  (-0.031637 -0.002245 -0.013805)
 76:   1478.43   0.001651    8.35  0.000349  ( 0.017597 -0.006182 -0.000829)
 77:   1482.20   0.001467    7.41  0.000309  ( 0.016649 -0.004701  0.003083)
 78:   1661.13   0.000023    0.12  0.000004  ( 0.000181  0.002071  0.000253)
 79:   3059.86   0.005223   26.39  0.000533  ( 0.003843 -0.011051  0.019893)
 80:   3063.49   0.005659   28.60  0.000576  ( 0.001052 -0.012630  0.020391)
 81:   3066.37   0.003180   16.07  0.000324  (-0.010611  0.010955  0.009541)
 82:   3068.38   0.003780   19.10  0.000384  ( 0.006338  0.017316  0.006663)
 83:   3073.89   0.003473   17.55  0.000353  (-0.011576  0.000609  0.014771)
 84:   3076.06   0.003051   15.42  0.000310  (-0.008813 -0.014176 -0.005560)
 85:   3162.93   0.004215   21.30  0.000416  (-0.002741  0.016660  0.011434)
 86:   3167.20   0.003451   17.44  0.000340  ( 0.003845 -0.004855 -0.017368)
 87:   3167.61   0.001466    7.41  0.000144  ( 0.004144 -0.009662  0.005821)
 88:   3168.28   0.005042   25.48  0.000497  (-0.006886  0.021159  0.001211)
 89:   3169.40   0.003620   18.29  0.000356  (-0.017252 -0.005968  0.004814)
 90:   3170.20   0.000833    4.21  0.000082  ( 0.003689  0.004527 -0.006919)
 91:   3171.17   0.008275   41.82  0.000814  (-0.016221  0.003443 -0.023224)
 92:   3171.92   0.004414   22.31  0.000434  ( 0.009127  0.017344  0.007080)
 93:   3175.68   0.009706   49.05  0.000954  ( 0.025403 -0.016151 -0.006904)
 94:   3176.74   0.012226   61.79  0.001201  ( 0.033645  0.002254  0.008000)
 95:   3187.49   0.004537   22.93  0.000444  (-0.006688 -0.008771  0.017958)
 96:   3196.70   0.003691   18.65  0.000360  (-0.014306 -0.010996  0.005891)
 97:   3292.01   0.001353    6.84  0.000128  ( 0.011246 -0.001193 -0.000581)
 98:   3316.48   0.000327    1.65  0.000031  (-0.004616 -0.002771 -0.001322)

--------------------------
THERMOCHEMISTRY AT 298.15K
--------------------------

Temperature         ... 298.15 K
Pressure            ... 1.00 atm
Total Mass          ... 180.30 AMU

Throughout the following assumptions are being made:
  (1) The electronic state is orbitally nondegenerate
  (2) There are no thermally accessible electronically excited states
  (3) Hindered rotations indicated by low frequency modes are not
      treated as such but are treated as vibrations and this may
      cause some error
  (4) All equations used are the standard statistical mechanics
      equations for an ideal gas
  (5) All vibrations are strictly harmonic

freq.      19.95  E(vib)   ...       0.56
freq.     112.02  E(vib)   ...       0.45
freq.     145.81  E(vib)   ...       0.41
freq.     166.18  E(vib)   ...       0.39
freq.     223.91  E(vib)   ...       0.33
freq.     227.77  E(vib)   ...       0.33
freq.     266.58  E(vib)   ...       0.29
freq.     271.59  E(vib)   ...       0.29
freq.     279.61  E(vib)   ...       0.28
freq.     287.99  E(vib)   ...       0.27
freq.     300.58  E(vib)   ...       0.26
freq.     316.88  E(vib)   ...       0.25
freq.     339.53  E(vib)   ...       0.23
freq.     352.72  E(vib)   ...       0.22
freq.     364.05  E(vib)   ...       0.22
freq.     372.52  E(vib)   ...       0.21
freq.     414.87  E(vib)   ...       0.19
freq.     451.36  E(vib)   ...       0.16
freq.     474.21  E(vib)   ...       0.15
freq.     478.15  E(vib)   ...       0.15
freq.     533.46  E(vib)   ...       0.13
freq.     582.39  E(vib)   ...       0.11
freq.     656.93  E(vib)   ...       0.08
freq.     678.66  E(vib)   ...       0.08
freq.     685.62  E(vib)   ...       0.07
freq.     757.26  E(vib)   ...       0.06
freq.     845.74  E(vib)   ...       0.04
freq.     855.55  E(vib)   ...       0.04
freq.     892.80  E(vib)   ...       0.03
freq.     941.41  E(vib)   ...       0.03
freq.     944.78  E(vib)   ...       0.03
freq.     948.55  E(vib)   ...       0.03
freq.     949.73  E(vib)   ...       0.03
freq.     958.80  E(vib)   ...       0.03
freq.     961.82  E(vib)   ...       0.03
freq.    1005.40  E(vib)   ...       0.02
freq.    1023.87  E(vib)   ...       0.02
freq.    1038.69  E(vib)   ...       0.02
freq.    1042.90  E(vib)   ...       0.02
freq.    1047.11  E(vib)   ...       0.02
freq.    1047.78  E(vib)   ...       0.02
freq.    1114.94  E(vib)   ...       0.01
freq.    1167.76  E(vib)   ...       0.01
freq.    1217.44  E(vib)   ...       0.01
freq.    1257.41  E(vib)   ...       0.01
freq.    1260.38  E(vib)   ...       0.01
freq.    1268.97  E(vib)   ...       0.01
freq.    1272.34  E(vib)   ...       0.01
freq.    1279.87  E(vib)   ...       0.01
freq.    1362.76  E(vib)   ...       0.01
freq.    1377.83  E(vib)   ...       0.01
freq.    1387.71  E(vib)   ...       0.00
freq.    1388.56  E(vib)   ...       0.00
freq.    1388.74  E(vib)   ...       0.00
freq.    1398.39  E(vib)   ...       0.00
freq.    1403.66  E(vib)   ...       0.00
freq.    1404.84  E(vib)   ...       0.00
freq.    1418.36  E(vib)   ...       0.00
freq.    1437.65  E(vib)   ...       0.00
freq.    1438.26  E(vib)   ...       0.00
freq.    1441.47  E(vib)   ...       0.00
freq.    1444.32  E(vib)   ...       0.00
freq.    1445.23  E(vib)   ...       0.00
freq.    1446.81  E(vib)   ...       0.00
freq.    1459.64  E(vib)   ...       0.00
freq.    1460.52  E(vib)   ...       0.00
freq.    1462.36  E(vib)   ...       0.00
freq.    1468.70  E(vib)   ...       0.00
freq.    1474.13  E(vib)   ...       0.00
freq.    1478.43  E(vib)   ...       0.00
freq.    1482.20  E(vib)   ...       0.00
freq.    1661.13  E(vib)   ...       0.00
freq.    3059.86  E(vib)   ...       0.00
freq.    3063.49  E(vib)   ...       0.00
freq.    3066.37  E(vib)   ...       0.00
freq.    3068.38  E(vib)   ...       0.00
freq.    3073.89  E(vib)   ...       0.00
freq.    3076.06  E(vib)   ...       0.00
freq.    3162.93  E(vib)   ...       0.00
freq.    3167.20  E(vib)   ...       0.00
freq.    3167.61  E(vib)   ...       0.00
freq.    3168.28  E(vib)   ...       0.00
freq.    3169.40  E(vib)   ...       0.00
freq.    3170.20  E(vib)   ...       0.00
freq.    3171.17  E(vib)   ...       0.00
freq.    3171.92  E(vib)   ...       0.00
freq.    3175.68  E(vib)   ...       0.00
freq.    3176.74  E(vib)   ...       0.00
freq.    3187.49  E(vib)   ...       0.00
freq.    3196.70  E(vib)   ...       0.00
freq.    3292.01  E(vib)   ...       0.00
freq.    3316.48  E(vib)   ...       0.00

------------
INNER ENERGY
------------

The inner energy is: U= E(el) + E(ZPE) + E(vib) + E(rot) + E(trans)
    E(el)   - is the total energy from the electronic structure calculation
              = E(kin-el) + E(nuc-el) + E(el-el) + E(nuc-nuc)
    E(ZPE)  - the the zero temperature vibrational energy from the frequency calculation
    E(vib)  - the the finite temperature correction to E(ZPE) due to population
              of excited vibrational states
    E(rot)  - is the rotational thermal energy
    E(trans)- is the translational thermal energy

Summary of contributions to the inner energy U:
Electronic energy                ...   -540.18684301 Eh
Zero point energy                ...      0.29693224 Eh     186.33 kcal/mol
Thermal vibrational correction   ...      0.01074902 Eh       6.75 kcal/mol
Thermal rotational correction    ...      0.00141627 Eh       0.89 kcal/mol
Thermal translational correction ...      0.00141627 Eh       0.89 kcal/mol
-----------------------------------------------------------------------
Total thermal energy                   -539.87632921 Eh

Summary of corrections to the electronic energy:
(perhaps to be used in another calculation)
Total thermal correction                  0.01358156 Eh       8.52 kcal/mol
Non-thermal (ZPE) correction              0.29693224 Eh     186.33 kcal/mol
-----------------------------------------------------------------------
Total correction                          0.31051380 Eh     194.85 kcal/mol

--------
ENTHALPY
--------

The enthalpy is H = U + kB*T
                kB is Boltzmann's constant
Total free energy                 ...   -539.87632921 Eh
Thermal Enthalpy correction       ...      0.00094421 Eh       0.59 kcal/mol
-----------------------------------------------------------------------
Total Enthalpy                    ...   -539.87538500 Eh

Note: Only C1 symmetry has been detected, increase convergence thresholds
      if your molecule has a higher symmetry. Symmetry factor of 1.0 is
      used for the rotational entropy correction.

Note: Rotational entropy computed according to Herzberg
Infrared and Raman Spectra, Chapter V,1, Van Nostrand Reinhold, 1945
Point Group:  C1, Symmetry Number:   1
Rotational constants in cm-1:     0.056053     0.014894     0.013935

                             ****ORCA TERMINATED NORMALLY****
TOTAL RUN TIME: 0 days 1 hours 53 minutes 38 seconds 716 msec
