                         Program Version 5.0.4 -  RELEASE  -
|  1> # ORCA 5.0.4 - /users/bwb16179/postgrad/2024_03/DFT_Crest_Conformers/Opt/deprot/5_deprot_aq_1.inp # write input file
|  2> # Basic Mode
|  3> #
|  4> ! Opt Freq wB97X Def2-SVP D4 SlowConv TightSCF Defgrid2 Def2/J RIJCOSX CPCM(Water)
|  5>
|  6>
|  7>
|  8> %maxcore 4500
|  9>
| 10> %geom
| 11> Maxiter 150
| 12> END
| 13>
| 14> * xyzfile 0 1 5_deprot_aq_1.xyz
| 15>
| 16>                          ****END OF INPUT****
 Total Charge           Charge          ....    0
 Multiplicity           Mult            ....    1
 Number of Electrons    NEL             ....  100
Dispersion correction           -0.005778344
FINAL SINGLE POINT ENERGY      -540.182050533201
Dispersion correction            ... Starting D4
Dispersion correction           -0.005719156
FINAL SINGLE POINT ENERGY      -540.186883688638
Dispersion correction            ... Starting D4
Dispersion correction           -0.005721354
FINAL SINGLE POINT ENERGY      -540.187142568063
Dispersion correction            ... Starting D4
Dispersion correction           -0.005720133
FINAL SINGLE POINT ENERGY      -540.187205796336
Dispersion correction            ... Starting D4
Dispersion correction           -0.005719633
FINAL SINGLE POINT ENERGY      -540.187210786449
Dispersion correction            ... Starting D4
                    ***********************HURRAY********************

CARTESIAN COORDINATES (ANGSTROEM)
---------------------------------
  N     -1.066643    0.176212    0.000255
  C     -0.000021   -0.667076   -0.000057
  N      1.066644    0.176154   -0.000408
  C      0.676673    1.508171   -0.000201
  C     -0.676599    1.508208    0.000137
  C     -2.491642   -0.234531    0.000135
  C      2.491622   -0.234659   -0.000037
  C     -3.161988    0.322437   -1.260459
  C     -3.163370    0.325991    1.258431
  C     -2.599687   -1.756792    0.002343
  C      3.161598    0.321862    1.260953
  C      3.163766    0.326248   -1.257939
  C      2.599590   -1.756925   -0.002739
  H      1.375419    2.342911   -0.000290
  H     -1.375304    2.342981    0.000259
  H     -2.123496   -2.192051    0.892101
  H     -2.122286   -2.194795   -0.885389
  H     -3.665584   -2.031781    0.002088
  H     -3.124748    1.422280   -1.289416
  H     -4.219884    0.019668   -1.288006
  H     -2.666306   -0.066718   -2.163592
  H      2.123523   -2.191847   -0.892729
  H      2.122015   -2.195214    0.884757
  H      3.665473   -2.031969   -0.002401
  H      4.221360    0.022448   -1.285469
  H      3.127845    1.426220   -1.283012
  H      2.668625   -0.059149   -2.162977
  H     -4.220969    0.022229    1.286203
  H     -3.127381    1.425954    1.283849
  H     -2.667949   -0.059717    2.163184
  H      4.219416    0.018852    1.288861
  H      2.665451   -0.067389    2.163789
  H      3.124584    1.421709    1.290141

 Multiplicity           Mult            ....    1
 Number of Electrons    NEL             ....  100
 Basis Dimension        Dim             ....  282

ORBITAL ENERGIES
----------------

  NO   OCC          E(Eh)            E(eV)
   0   2.0000     -14.443797      -393.0357
   1   2.0000     -14.443771      -393.0350
   2   2.0000     -10.315884      -280.7095
   3   2.0000     -10.315857      -280.7087
   4   2.0000     -10.291542      -280.0471
   5   2.0000     -10.290948      -280.0309
   6   2.0000     -10.271492      -279.5015
   7   2.0000     -10.261213      -279.2218
   8   2.0000     -10.261208      -279.2217
   9   2.0000     -10.261197      -279.2214
  10   2.0000     -10.261194      -279.2213
  11   2.0000     -10.257374      -279.1173
  12   2.0000     -10.257358      -279.1169
  13   2.0000      -1.143093       -31.1051
  14   2.0000      -1.040460       -28.3124
  15   2.0000      -0.950126       -25.8543
  16   2.0000      -0.898911       -24.4606
  17   2.0000      -0.863826       -23.5059
  18   2.0000      -0.808832       -22.0094
  19   2.0000      -0.808649       -22.0045
  20   2.0000      -0.808245       -21.9935
  21   2.0000      -0.802603       -21.8399
  22   2.0000      -0.755357       -20.5543
  23   2.0000      -0.716643       -19.5009
  24   2.0000      -0.656130       -17.8542
  25   2.0000      -0.648553       -17.6480
  26   2.0000      -0.615412       -16.7462
  27   2.0000      -0.579911       -15.7802
  28   2.0000      -0.578652       -15.7459
  29   2.0000      -0.555998       -15.1295
  30   2.0000      -0.555877       -15.1262
  31   2.0000      -0.549014       -14.9394
  32   2.0000      -0.533454       -14.5160
  33   2.0000      -0.528549       -14.3826
  34   2.0000      -0.525328       -14.2949
  35   2.0000      -0.501647       -13.6505
  36   2.0000      -0.488780       -13.3004
  37   2.0000      -0.480645       -13.0790
  38   2.0000      -0.479863       -13.0577
  39   2.0000      -0.472986       -12.8706
  40   2.0000      -0.465228       -12.6595
  41   2.0000      -0.465050       -12.6546
  42   2.0000      -0.460910       -12.5420
  43   2.0000      -0.446261       -12.1434
  44   2.0000      -0.436954       -11.8901
  45   2.0000      -0.433914       -11.8074
  46   2.0000      -0.429372       -11.6838
  47   2.0000      -0.365816        -9.9544
  48   2.0000      -0.323329        -8.7982
  49   2.0000      -0.313602        -8.5335
  50   0.0000       0.124283         3.3819
  51   0.0000       0.130812         3.5596
  52   0.0000       0.141550         3.8518
  53   0.0000       0.149195         4.0598
  54   0.0000       0.181444         4.9373

MULLIKEN ATOMIC CHARGES
-----------------------
   0 N :   -0.201959
   1 C :   -0.198112
   2 N :   -0.201958
   3 C :    0.014151
   4 C :    0.014151
   5 C :   -0.209935
   6 C :   -0.209938
   7 C :    0.033811
   8 C :    0.033631
   9 C :    0.074460
  10 C :    0.033828
  11 C :    0.033615
  12 C :    0.074460
  13 H :    0.063372
  14 H :    0.063374
  15 H :    0.021734
  16 H :    0.021771
  17 H :    0.033051
  18 H :    0.033479
  19 H :    0.038915
  20 H :    0.035042
  21 H :    0.021732
  22 H :    0.021773
  23 H :    0.033051
  24 H :    0.038937
  25 H :    0.033514
  26 H :    0.035091
  27 H :    0.038935
  28 H :    0.033511
  29 H :    0.035085
  30 H :    0.038914
  31 H :    0.035037
  32 H :    0.033476
Sum of atomic charges:   -0.0000000

LOEWDIN ATOMIC CHARGES
----------------------
   0 N :    0.031209
   1 C :   -0.301823
   2 N :    0.031209
   3 C :   -0.035935
   4 C :   -0.035935
   5 C :    0.007316
   6 C :    0.007316
   7 C :   -0.051286
   8 C :   -0.051294
   9 C :   -0.046906
  10 C :   -0.051286
  11 C :   -0.051294
  12 C :   -0.046906
  13 H :    0.038346
  14 H :    0.038345
  15 H :    0.024228
  16 H :    0.024210
  17 H :    0.030607
  18 H :    0.027319
  19 H :    0.033596
  20 H :    0.029279
  21 H :    0.024230
  22 H :    0.024208
  23 H :    0.030607
  24 H :    0.033614
  25 H :    0.027319
  26 H :    0.029295
  27 H :    0.033611
  28 H :    0.027319
  29 H :    0.029293
  30 H :    0.033594
  31 H :    0.029277
  32 H :    0.027319

  Mayer bond orders larger than 0.100000
B(  0-N ,  1-C ) :   1.2492 B(  0-N ,  4-C ) :   1.1196 B(  0-N ,  5-C ) :   0.8732
B(  1-C ,  2-N ) :   1.2492 B(  2-N ,  3-C ) :   1.1196 B(  2-N ,  6-C ) :   0.8732
B(  3-C ,  4-C ) :   1.6421 B(  3-C , 13-H ) :   0.9861 B(  4-C , 14-H ) :   0.9861
B(  5-C ,  7-C ) :   1.0414 B(  5-C ,  8-C ) :   1.0415 B(  5-C ,  9-C ) :   1.0628
B(  6-C , 10-C ) :   1.0414 B(  6-C , 11-C ) :   1.0415 B(  6-C , 12-C ) :   1.0628
B(  7-C , 18-H ) :   0.9631 B(  7-C , 19-H ) :   0.9711 B(  7-C , 20-H ) :   0.9668
B(  8-C , 27-H ) :   0.9711 B(  8-C , 28-H ) :   0.9631 B(  8-C , 29-H ) :   0.9668
B(  9-C , 15-H ) :   0.9554 B(  9-C , 16-H ) :   0.9553 B(  9-C , 17-H ) :   0.9652
B( 10-C , 30-H ) :   0.9711 B( 10-C , 31-H ) :   0.9668 B( 10-C , 32-H ) :   0.9631
B( 11-C , 24-H ) :   0.9711 B( 11-C , 25-H ) :   0.9631 B( 11-C , 26-H ) :   0.9668
B( 12-C , 21-H ) :   0.9554 B( 12-C , 22-H ) :   0.9553 B( 12-C , 23-H ) :   0.9652

Dispersion correction           -0.005719487
FINAL SINGLE POINT ENERGY      -540.187211465006

DIPOLE MOMENT
-------------
                                X             Y             Z
Electronic contribution:      0.00013       3.58889      -0.00100
Nuclear contribution   :     -0.00009      -2.27793       0.00114
                        -----------------------------------------
Total Dipole Moment    :      0.00004       1.31096       0.00014
                        -----------------------------------------
Magnitude (a.u.)       :      1.31096
Magnitude (Debye)      :      3.33219

Dispersion correction in the Hessian             ... Starting D4

VIBRATIONAL FREQUENCIES
-----------------------

Scaling factor for frequencies =  1.000000000  (already applied!)

   0:         0.00 cm**-1
   1:         0.00 cm**-1
   2:         0.00 cm**-1
   3:         0.00 cm**-1
   4:         0.00 cm**-1
   5:         0.00 cm**-1
   6:       -26.89 cm**-1 ***imaginary mode***
   7:        15.24 cm**-1
   8:       122.77 cm**-1
   9:       145.11 cm**-1
  10:       156.19 cm**-1
  11:       218.15 cm**-1
  12:       221.66 cm**-1
  13:       261.90 cm**-1
  14:       267.61 cm**-1
  15:       277.13 cm**-1
  16:       282.15 cm**-1
  17:       282.68 cm**-1
  18:       283.01 cm**-1
  19:       349.25 cm**-1
  20:       352.53 cm**-1
  21:       366.20 cm**-1
  22:       372.16 cm**-1
  23:       401.30 cm**-1
  24:       450.22 cm**-1
  25:       470.15 cm**-1
  26:       478.51 cm**-1
  27:       531.33 cm**-1
  28:       583.59 cm**-1
  29:       660.11 cm**-1
  30:       671.69 cm**-1
  31:       685.59 cm**-1
  32:       751.66 cm**-1
  33:       844.77 cm**-1
  34:       855.01 cm**-1
  35:       886.47 cm**-1
  36:       942.13 cm**-1
  37:       942.26 cm**-1
  38:       952.39 cm**-1
  39:       953.05 cm**-1
  40:       958.21 cm**-1
  41:       958.26 cm**-1
  42:      1004.01 cm**-1
  43:      1022.74 cm**-1
  44:      1038.58 cm**-1
  45:      1039.45 cm**-1
  46:      1048.16 cm**-1
  47:      1048.48 cm**-1
  48:      1101.74 cm**-1
  49:      1161.00 cm**-1
  50:      1217.60 cm**-1
  51:      1256.79 cm**-1
  52:      1259.70 cm**-1
  53:      1268.32 cm**-1
  54:      1269.15 cm**-1
  55:      1281.14 cm**-1
  56:      1366.14 cm**-1
  57:      1374.04 cm**-1
  58:      1390.03 cm**-1
  59:      1390.13 cm**-1
  60:      1391.12 cm**-1
  61:      1402.22 cm**-1
  62:      1405.24 cm**-1
  63:      1405.36 cm**-1
  64:      1417.90 cm**-1
  65:      1435.95 cm**-1
  66:      1437.00 cm**-1
  67:      1438.65 cm**-1
  68:      1438.70 cm**-1
  69:      1443.37 cm**-1
  70:      1443.37 cm**-1
  71:      1459.48 cm**-1
  72:      1461.62 cm**-1
  73:      1461.71 cm**-1
  74:      1468.11 cm**-1
  75:      1469.72 cm**-1
  76:      1476.83 cm**-1
  77:      1476.97 cm**-1
  78:      1664.62 cm**-1
  79:      3063.47 cm**-1
  80:      3063.48 cm**-1
  81:      3066.21 cm**-1
  82:      3066.33 cm**-1
  83:      3076.37 cm**-1
  84:      3076.41 cm**-1
  85:      3167.63 cm**-1
  86:      3167.64 cm**-1
  87:      3168.31 cm**-1
  88:      3168.33 cm**-1
  89:      3170.40 cm**-1
  90:      3170.41 cm**-1
  91:      3172.46 cm**-1
  92:      3172.56 cm**-1
  93:      3177.27 cm**-1
  94:      3177.62 cm**-1
  95:      3186.87 cm**-1
  96:      3187.02 cm**-1
  97:      3285.76 cm**-1
  98:      3306.25 cm**-1

IR SPECTRUM
-----------

 Mode   freq       eps      Int      T**2         TX        TY        TZ
       cm**-1   L/(mol*cm) km/mol    a.u.
----------------------------------------------------------------------------
  7:     15.24   0.000045    0.23  0.000928  (-0.000228 -0.000024  0.030466)
  8:    122.77   0.003579   18.09  0.009097  (-0.000131 -0.000038  0.095379)
  9:    145.11   0.000328    1.66  0.000705  ( 0.000001  0.026553  0.000121)
 10:    156.19   0.000000    0.00  0.000000  ( 0.000010 -0.000082  0.000022)
 11:    218.15   0.000194    0.98  0.000278  (-0.000026 -0.000001 -0.016671)
 12:    221.66   0.000000    0.00  0.000000  (-0.000004 -0.000024  0.000048)
 13:    261.90   0.000219    1.11  0.000261  ( 0.016150 -0.000003 -0.000082)
 14:    267.61   0.000004    0.02  0.000005  (-0.000038 -0.002265 -0.000005)
 15:    277.13   0.000006    0.03  0.000007  (-0.000040  0.002656  0.000026)
 16:    282.15   0.000331    1.67  0.000366  (-0.019116 -0.000001 -0.000884)
 17:    282.68   0.000000    0.00  0.000000  ( 0.000305 -0.000007  0.000294)
 18:    283.01   0.000138    0.70  0.000152  (-0.001230 -0.000009  0.012260)
 19:    349.25   0.001233    6.23  0.001102  (-0.000143 -0.000021 -0.033196)
 20:    352.53   0.000224    1.13  0.000199  ( 0.000000  0.014092 -0.000061)
 21:    366.20   0.000000    0.00  0.000000  (-0.000079  0.000136 -0.000000)
 22:    372.16   0.000855    4.32  0.000717  (-0.026783 -0.000001  0.000188)
 23:    401.30   0.000374    1.89  0.000291  (-0.017049  0.000002  0.000002)
 24:    450.22   0.001953    9.87  0.001354  (-0.000046 -0.000003  0.036797)
 25:    470.15   0.000000    0.00  0.000000  ( 0.000014  0.000209 -0.000003)
 26:    478.51   0.000268    1.36  0.000175  ( 0.000000 -0.013228 -0.000015)
 27:    531.33   0.001695    8.57  0.000996  ( 0.031554 -0.000001  0.000008)
 28:    583.59   0.000307    1.55  0.000164  (-0.000001 -0.012818  0.000002)
 29:    660.11   0.004295   21.71  0.002031  (-0.045061  0.000001  0.000069)
 30:    671.69   0.002389   12.07  0.001110  ( 0.000059  0.000001  0.033312)
 31:    685.59   0.000000    0.00  0.000000  ( 0.000001 -0.000024 -0.000004)
 32:    751.66   0.013322   67.32  0.005531  (-0.000036  0.000008  0.074368)
 33:    844.77   0.000030    0.15  0.000011  (-0.000000 -0.003302  0.000008)
 34:    855.01   0.001097    5.55  0.000401  (-0.020013  0.000001 -0.000061)
 35:    886.47   0.000000    0.00  0.000000  ( 0.000005  0.000045 -0.000002)
 36:    942.13   0.000541    2.73  0.000179  ( 0.000018  0.000003 -0.013386)
 37:    942.26   0.000000    0.00  0.000000  ( 0.000004  0.000030  0.000004)
 38:    952.39   0.000857    4.33  0.000281  ( 0.000007  0.016755  0.000007)
 39:    953.05   0.000038    0.19  0.000012  (-0.003513  0.000037  0.000078)
 40:    958.21   0.000033    0.17  0.000011  ( 0.000033 -0.000001 -0.003275)
 41:    958.26   0.000000    0.00  0.000000  ( 0.000007  0.000052 -0.000143)
 42:   1004.01   0.002939   14.85  0.000914  (-0.030224  0.000000 -0.000023)
 43:   1022.74   0.000407    2.06  0.000124  (-0.000001  0.011148  0.000002)
 44:   1038.58   0.000001    0.00  0.000000  (-0.000008 -0.000429  0.000004)
 45:   1039.45   0.000034    0.17  0.000010  ( 0.003173  0.000001  0.000027)
 46:   1048.16   0.000258    1.31  0.000077  ( 0.000047 -0.000010 -0.008772)
 47:   1048.48   0.000000    0.00  0.000000  ( 0.000008 -0.000101  0.000021)
 48:   1101.74   0.005184   26.20  0.001468  ( 0.000000 -0.038321  0.000007)
 49:   1161.00   0.001076    5.44  0.000289  (-0.017005 -0.000001 -0.000016)
 50:   1217.60   0.000772    3.90  0.000198  (-0.000001  0.014069 -0.000009)
 51:   1256.79   0.031328  158.32  0.007779  (-0.088197  0.000000 -0.000054)
 52:   1259.70   0.000805    4.07  0.000200  (-0.000007  0.014125 -0.000020)
 53:   1268.32   0.000000    0.00  0.000000  ( 0.000002 -0.000088  0.000052)
 54:   1269.15   0.006756   34.14  0.001661  (-0.000174 -0.000008 -0.040757)
 55:   1281.14   0.026658  134.72  0.006493  ( 0.080581 -0.000002 -0.000113)
 56:   1366.14   0.001541    7.79  0.000352  ( 0.018759 -0.000001  0.000036)
 57:   1374.04   0.000912    4.61  0.000207  ( 0.000001  0.014395  0.000000)
 58:   1390.03   0.000000    0.00  0.000000  (-0.000021 -0.000047  0.000121)
 59:   1390.13   0.010755   54.35  0.002414  (-0.000138 -0.000038  0.049136)
 60:   1391.12   0.006029   30.47  0.001353  ( 0.000000  0.036777  0.000044)
 61:   1402.22   0.000952    4.81  0.000212  (-0.014553  0.000002 -0.000037)
 62:   1405.24   0.002941   14.86  0.000653  (-0.025554 -0.000003 -0.000050)
 63:   1405.36   0.000078    0.39  0.000017  (-0.000033  0.004156 -0.000008)
 64:   1417.90   0.011258   56.89  0.002478  (-0.000001 -0.049777  0.000001)
 65:   1435.95   0.000076    0.39  0.000017  (-0.004069  0.000014 -0.000039)
 66:   1437.00   0.000567    2.86  0.000123  (-0.000004 -0.011094 -0.000009)
 67:   1438.65   0.000001    0.00  0.000000  (-0.000007 -0.000049  0.000335)
 68:   1438.70   0.000359    1.81  0.000078  ( 0.000016 -0.000010  0.008819)
 69:   1443.37   0.000001    0.01  0.000000  ( 0.000049 -0.000011  0.000517)
 70:   1443.37   0.000015    0.07  0.000003  ( 0.000110  0.000006  0.001776)
 71:   1459.48   0.020723  104.73  0.004431  (-0.066566  0.000003  0.000174)
 72:   1461.62   0.001364    6.89  0.000291  (-0.000816  0.000000 -0.017045)
 73:   1461.71   0.000000    0.00  0.000000  (-0.000001 -0.000025 -0.000016)
 74:   1468.11   0.003946   19.94  0.000839  ( 0.028960  0.000005  0.000025)
 75:   1469.72   0.001109    5.61  0.000236  (-0.000005 -0.015347 -0.000005)
 76:   1476.83   0.000450    2.28  0.000095  (-0.000137 -0.009752  0.000003)
 77:   1476.97   0.003774   19.07  0.000797  ( 0.028238 -0.000053 -0.000012)
 78:   1664.62   0.000000    0.00  0.000000  (-0.000000 -0.000095  0.000001)
 79:   3063.47   0.000058    0.29  0.000006  (-0.000009  0.000001 -0.002437)
 80:   3063.48   0.011623   58.74  0.001184  ( 0.000045  0.000007  0.034410)
 81:   3066.21   0.002205   11.14  0.000224  (-0.014979 -0.000107  0.000067)
 82:   3066.33   0.004486   22.67  0.000457  (-0.000075  0.021367 -0.000017)
 83:   3076.37   0.001730    8.74  0.000175  (-0.013246  0.000170  0.000080)
 84:   3076.41   0.004443   22.45  0.000451  (-0.000107 -0.021229 -0.000006)
 85:   3167.63   0.004958   25.06  0.000488  (-0.000148 -0.000125  0.022100)
 86:   3167.64   0.000005    0.02  0.000000  ( 0.000039  0.000261  0.000637)
 87:   3168.31   0.001615    8.16  0.000159  ( 0.012595 -0.000626  0.000162)
 88:   3168.33   0.010572   53.42  0.001041  (-0.000244 -0.032267 -0.000087)
 89:   3170.40   0.001330    6.72  0.000131  (-0.000076  0.000014  0.011442)
 90:   3170.41   0.000003    0.01  0.000000  (-0.000013  0.000188 -0.000504)
 91:   3172.46   0.001389    7.02  0.000137  ( 0.011686 -0.000258 -0.000080)
 92:   3172.56   0.007456   37.68  0.000733  ( 0.000103  0.027081  0.000003)
 93:   3177.27   0.025984  131.31  0.002552  ( 0.050517  0.000012  0.000267)
 94:   3177.62   0.000340    1.72  0.000033  (-0.000071  0.005776 -0.000012)
 95:   3186.87   0.009214   46.56  0.000902  ( 0.000300  0.000007 -0.030035)
 96:   3187.02   0.000003    0.02  0.000000  (-0.000004 -0.000068 -0.000547)
 97:   3285.76   0.001280    6.47  0.000122  (-0.011026  0.000001  0.000006)
 98:   3306.25   0.000191    0.96  0.000018  (-0.000001 -0.004243  0.000000)

--------------------------
THERMOCHEMISTRY AT 298.15K
--------------------------

Temperature         ... 298.15 K
Pressure            ... 1.00 atm
Total Mass          ... 180.30 AMU

Throughout the following assumptions are being made:
  (1) The electronic state is orbitally nondegenerate
  (2) There are no thermally accessible electronically excited states
  (3) Hindered rotations indicated by low frequency modes are not
      treated as such but are treated as vibrations and this may
      cause some error
  (4) All equations used are the standard statistical mechanics
      equations for an ideal gas
  (5) All vibrations are strictly harmonic

freq.      15.24  E(vib)   ...       0.57
freq.     122.77  E(vib)   ...       0.43
freq.     145.11  E(vib)   ...       0.41
freq.     156.19  E(vib)   ...       0.40
freq.     218.15  E(vib)   ...       0.33
freq.     221.66  E(vib)   ...       0.33
freq.     261.90  E(vib)   ...       0.29
freq.     267.61  E(vib)   ...       0.29
freq.     277.13  E(vib)   ...       0.28
freq.     282.15  E(vib)   ...       0.28
freq.     282.68  E(vib)   ...       0.28
freq.     283.01  E(vib)   ...       0.28
freq.     349.25  E(vib)   ...       0.23
freq.     352.53  E(vib)   ...       0.22
freq.     366.20  E(vib)   ...       0.22
freq.     372.16  E(vib)   ...       0.21
freq.     401.30  E(vib)   ...       0.19
freq.     450.22  E(vib)   ...       0.17
freq.     470.15  E(vib)   ...       0.16
freq.     478.51  E(vib)   ...       0.15
freq.     531.33  E(vib)   ...       0.13
freq.     583.59  E(vib)   ...       0.11
freq.     660.11  E(vib)   ...       0.08
freq.     671.69  E(vib)   ...       0.08
freq.     685.59  E(vib)   ...       0.07
freq.     751.66  E(vib)   ...       0.06
freq.     844.77  E(vib)   ...       0.04
freq.     855.01  E(vib)   ...       0.04
freq.     886.47  E(vib)   ...       0.04
freq.     942.13  E(vib)   ...       0.03
freq.     942.26  E(vib)   ...       0.03
freq.     952.39  E(vib)   ...       0.03
freq.     953.05  E(vib)   ...       0.03
freq.     958.21  E(vib)   ...       0.03
freq.     958.26  E(vib)   ...       0.03
freq.    1004.01  E(vib)   ...       0.02
freq.    1022.74  E(vib)   ...       0.02
freq.    1038.58  E(vib)   ...       0.02
freq.    1039.45  E(vib)   ...       0.02
freq.    1048.16  E(vib)   ...       0.02
freq.    1048.48  E(vib)   ...       0.02
freq.    1101.74  E(vib)   ...       0.02
freq.    1161.00  E(vib)   ...       0.01
freq.    1217.60  E(vib)   ...       0.01
freq.    1256.79  E(vib)   ...       0.01
freq.    1259.70  E(vib)   ...       0.01
freq.    1268.32  E(vib)   ...       0.01
freq.    1269.15  E(vib)   ...       0.01
freq.    1281.14  E(vib)   ...       0.01
freq.    1366.14  E(vib)   ...       0.01
freq.    1374.04  E(vib)   ...       0.01
freq.    1390.03  E(vib)   ...       0.00
freq.    1390.13  E(vib)   ...       0.00
freq.    1391.12  E(vib)   ...       0.00
freq.    1402.22  E(vib)   ...       0.00
freq.    1405.24  E(vib)   ...       0.00
freq.    1405.36  E(vib)   ...       0.00
freq.    1417.90  E(vib)   ...       0.00
freq.    1435.95  E(vib)   ...       0.00
freq.    1437.00  E(vib)   ...       0.00
freq.    1438.65  E(vib)   ...       0.00
freq.    1438.70  E(vib)   ...       0.00
freq.    1443.37  E(vib)   ...       0.00
freq.    1443.37  E(vib)   ...       0.00
freq.    1459.48  E(vib)   ...       0.00
freq.    1461.62  E(vib)   ...       0.00
freq.    1461.71  E(vib)   ...       0.00
freq.    1468.11  E(vib)   ...       0.00
freq.    1469.72  E(vib)   ...       0.00
freq.    1476.83  E(vib)   ...       0.00
freq.    1476.97  E(vib)   ...       0.00
freq.    1664.62  E(vib)   ...       0.00
freq.    3063.47  E(vib)   ...       0.00
freq.    3063.48  E(vib)   ...       0.00
freq.    3066.21  E(vib)   ...       0.00
freq.    3066.33  E(vib)   ...       0.00
freq.    3076.37  E(vib)   ...       0.00
freq.    3076.41  E(vib)   ...       0.00
freq.    3167.63  E(vib)   ...       0.00
freq.    3167.64  E(vib)   ...       0.00
freq.    3168.31  E(vib)   ...       0.00
freq.    3168.33  E(vib)   ...       0.00
freq.    3170.40  E(vib)   ...       0.00
freq.    3170.41  E(vib)   ...       0.00
freq.    3172.46  E(vib)   ...       0.00
freq.    3172.56  E(vib)   ...       0.00
freq.    3177.27  E(vib)   ...       0.00
freq.    3177.62  E(vib)   ...       0.00
freq.    3186.87  E(vib)   ...       0.00
freq.    3187.02  E(vib)   ...       0.00
freq.    3285.76  E(vib)   ...       0.00
freq.    3306.25  E(vib)   ...       0.00

------------
INNER ENERGY
------------

The inner energy is: U= E(el) + E(ZPE) + E(vib) + E(rot) + E(trans)
    E(el)   - is the total energy from the electronic structure calculation
              = E(kin-el) + E(nuc-el) + E(el-el) + E(nuc-nuc)
    E(ZPE)  - the the zero temperature vibrational energy from the frequency calculation
    E(vib)  - the the finite temperature correction to E(ZPE) due to population
              of excited vibrational states
    E(rot)  - is the rotational thermal energy
    E(trans)- is the translational thermal energy

Summary of contributions to the inner energy U:
Electronic energy                ...   -540.18721147 Eh
Zero point energy                ...      0.29656369 Eh     186.10 kcal/mol
Thermal vibrational correction   ...      0.01087596 Eh       6.82 kcal/mol
Thermal rotational correction    ...      0.00141627 Eh       0.89 kcal/mol
Thermal translational correction ...      0.00141627 Eh       0.89 kcal/mol
-----------------------------------------------------------------------
Total thermal energy                   -539.87693927 Eh

Summary of corrections to the electronic energy:
(perhaps to be used in another calculation)
Total thermal correction                  0.01370851 Eh       8.60 kcal/mol
Non-thermal (ZPE) correction              0.29656369 Eh     186.10 kcal/mol
-----------------------------------------------------------------------
Total correction                          0.31027220 Eh     194.70 kcal/mol

--------
ENTHALPY
--------

The enthalpy is H = U + kB*T
                kB is Boltzmann's constant
Total free energy                 ...   -539.87693927 Eh
Thermal Enthalpy correction       ...      0.00094421 Eh       0.59 kcal/mol
-----------------------------------------------------------------------
Total Enthalpy                    ...   -539.87599506 Eh

Note: Only C1 symmetry has been detected, increase convergence thresholds
      if your molecule has a higher symmetry. Symmetry factor of 1.0 is
      used for the rotational entropy correction.

Note: Rotational entropy computed according to Herzberg
Infrared and Raman Spectra, Chapter V,1, Van Nostrand Reinhold, 1945
Point Group:  C1, Symmetry Number:   1
Rotational constants in cm-1:     0.056201     0.014846     0.013906

                             ****ORCA TERMINATED NORMALLY****
TOTAL RUN TIME: 0 days 1 hours 8 minutes 59 seconds 442 msec
