                         Program Version 5.0.4 -  RELEASE  -
|  1> # ORCA 5.0.4 - /users/bwb16179/postgrad/2024_03/DFT_Crest_Conformers/Opt/prot/5_prot_aq_3.inp # write input file
|  2> # Basic Mode
|  3> #
|  4> ! Opt Freq wB97X Def2-SVP D4 SlowConv TightSCF Defgrid2 Def2/J RIJCOSX CPCM(Water)
|  5>
|  6>
|  7>
|  8> %maxcore 4500
|  9>
| 10> %geom
| 11> Maxiter 150
| 12> END
| 13>
| 14> * xyzfile 1 1 5_prot_aq_3.xyz
| 15>
| 16>                          ****END OF INPUT****
 Total Charge           Charge          ....    1
 Multiplicity           Mult            ....    1
 Number of Electrons    NEL             ....  100
Dispersion correction           -0.005619233
FINAL SINGLE POINT ENERGY      -540.689291814082
Dispersion correction            ... Starting D4
Dispersion correction           -0.005602552
FINAL SINGLE POINT ENERGY      -540.693286769140
Dispersion correction            ... Starting D4
Dispersion correction           -0.005600159
FINAL SINGLE POINT ENERGY      -540.693440330838
Dispersion correction            ... Starting D4
FINAL SINGLE POINT ENERGY      -540.693493076536
FINAL SINGLE POINT ENERGY      -540.693496743057
FINAL SINGLE POINT ENERGY      -540.693493375776
FINAL SINGLE POINT ENERGY      -540.693484178489
FINAL SINGLE POINT ENERGY      -540.693414491128
FINAL SINGLE POINT ENERGY      -540.693503383885
FINAL SINGLE POINT ENERGY      -540.693525187245
FINAL SINGLE POINT ENERGY      -540.693563784892
Dispersion correction           -0.005598537
FINAL SINGLE POINT ENERGY      -540.693582765943
Dispersion correction            ... Starting D4
Dispersion correction           -0.005598532
FINAL SINGLE POINT ENERGY      -540.693584803074
Dispersion correction            ... Starting D4
                    ***********************HURRAY********************

CARTESIAN COORDINATES (ANGSTROEM)
---------------------------------
  N     -1.092019    0.146261   -0.231699
  C     -0.015374   -0.270303    0.436165
  N      1.083297    0.095148   -0.220165
  H     -0.037814   -0.824537    1.372483
  C      0.696555    0.775783   -1.354788
  C     -0.663230    0.807524   -1.362267
  C     -2.504556   -0.079165    0.219926
  C      2.502721   -0.155352    0.184442
  C     -3.454431    0.499291   -0.823957
  C     -2.692037    0.636121    1.558719
  C     -2.725691   -1.586406    0.354585
  C      3.185183   -0.919949   -0.950343
  C      2.520237   -0.983880    1.464734
  C      3.165793    1.202311    0.419135
  H      1.410255    1.183078   -2.067393
  H     -1.343644    1.246804   -2.085959
  H     -3.320676    1.585298   -0.940817
  H     -4.484943    0.320702   -0.486325
  H     -3.329445    0.011452   -1.802476
  H     -2.064487   -2.030168    1.113895
  H     -2.552196   -2.092837   -0.607145
  H     -3.765048   -1.771930    0.662364
  H      2.029048   -1.959139    1.325148
  H      2.042393   -0.453159    2.302320
  H      3.567924   -1.170518    1.738914
  H     -2.022131    0.232229    2.332954
  H     -3.728216    0.498031    1.900341
  H     -2.500309    1.714564    1.452098
  H      4.228684   -1.123729   -0.669507
  H      3.193067   -0.339391   -1.884862
  H      2.679421   -1.880352   -1.132591
  H      2.647855    1.754324    1.218050
  H      3.167073    1.815633   -0.494604
  H      4.210661    1.044393    0.723849

 Multiplicity           Mult            ....    1
 Number of Electrons    NEL             ....  100
 Basis Dimension        Dim             ....  287

ORBITAL ENERGIES
----------------

  NO   OCC          E(Eh)            E(eV)
   0   2.0000     -14.508800      -394.8045
   1   2.0000     -14.507089      -394.7580
   2   2.0000     -10.382097      -282.5112
   3   2.0000     -10.345714      -281.5212
   4   2.0000     -10.345484      -281.5149
   5   2.0000     -10.333466      -281.1879
   6   2.0000     -10.331481      -281.1339
   7   2.0000     -10.276182      -279.6291
   8   2.0000     -10.275018      -279.5975
   9   2.0000     -10.274186      -279.5748
  10   2.0000     -10.273950      -279.5684
  11   2.0000     -10.273941      -279.5681
  12   2.0000     -10.273784      -279.5639
  13   2.0000      -1.213115       -33.0105
  14   2.0000      -1.094948       -29.7950
  15   2.0000      -0.980179       -26.6720
  16   2.0000      -0.932917       -25.3860
  17   2.0000      -0.920747       -25.0548
  18   2.0000      -0.833375       -22.6773
  19   2.0000      -0.823702       -22.4141
  20   2.0000      -0.823299       -22.4031
  21   2.0000      -0.822839       -22.3906
  22   2.0000      -0.792037       -21.5524
  23   2.0000      -0.764211       -20.7952
  24   2.0000      -0.725355       -19.7379
  25   2.0000      -0.701333       -19.0842
  26   2.0000      -0.643391       -17.5076
  27   2.0000      -0.627317       -17.0702
  28   2.0000      -0.606535       -16.5047
  29   2.0000      -0.586195       -15.9512
  30   2.0000      -0.585949       -15.9445
  31   2.0000      -0.577104       -15.7038
  32   2.0000      -0.573706       -15.6113
  33   2.0000      -0.553834       -15.0706
  34   2.0000      -0.551863       -15.0169
  35   2.0000      -0.549240       -14.9456
  36   2.0000      -0.518301       -14.1037
  37   2.0000      -0.505002       -13.7418
  38   2.0000      -0.498957       -13.5773
  39   2.0000      -0.497118       -13.5273
  40   2.0000      -0.492517       -13.4021
  41   2.0000      -0.487081       -13.2541
  42   2.0000      -0.480157       -13.0657
  43   2.0000      -0.479696       -13.0532
  44   2.0000      -0.467302       -12.7159
  45   2.0000      -0.454189       -12.3591
  46   2.0000      -0.452670       -12.3178
  47   2.0000      -0.451533       -12.2868
  48   2.0000      -0.412220       -11.2171
  49   2.0000      -0.372590       -10.1387
  50   0.0000       0.060837         1.6555
  51   0.0000       0.095658         2.6030
  52   0.0000       0.130639         3.5549
  53   0.0000       0.143304         3.8995
  54   0.0000       0.163826         4.4579

MULLIKEN ATOMIC CHARGES
-----------------------
   0 N :   -0.186151
   1 C :    0.208537
   2 N :   -0.173807
   3 H :    0.136924
   4 C :    0.054787
   5 C :    0.066353
   6 C :   -0.236475
   7 C :   -0.240251
   8 C :    0.010226
   9 C :    0.037194
  10 C :    0.031643
  11 C :    0.034229
  12 C :    0.001845
  13 C :    0.039978
  14 H :    0.106677
  15 H :    0.098706
  16 H :    0.058650
  17 H :    0.062336
  18 H :    0.058035
  19 H :    0.050048
  20 H :    0.054082
  21 H :    0.058318
  22 H :    0.060202
  23 H :    0.060962
  24 H :    0.064410
  25 H :    0.049467
  26 H :    0.057594
  27 H :    0.053030
  28 H :    0.058527
  29 H :    0.050848
  30 H :    0.052844
  31 H :    0.052121
  32 H :    0.050137
  33 H :    0.057974
Sum of atomic charges:    1.0000000

LOEWDIN ATOMIC CHARGES
----------------------
   0 N :    0.095772
   1 C :    0.119887
   2 N :    0.102717
   3 H :    0.063840
   4 C :    0.012532
   5 C :    0.019110
   6 C :    0.017448
   7 C :    0.017091
   8 C :   -0.047608
   9 C :   -0.045295
  10 C :   -0.045781
  11 C :   -0.044838
  12 C :   -0.049038
  13 C :   -0.044459
  14 H :    0.059504
  15 H :    0.059869
  16 H :    0.037480
  17 H :    0.047337
  18 H :    0.037594
  19 H :    0.034627
  20 H :    0.037318
  21 H :    0.043865
  22 H :    0.038089
  23 H :    0.037982
  24 H :    0.048642
  25 H :    0.034530
  26 H :    0.043424
  27 H :    0.037041
  28 H :    0.043989
  29 H :    0.034924
  30 H :    0.037031
  31 H :    0.036809
  32 H :    0.034922
  33 H :    0.043643

  Mayer bond orders larger than 0.100000
B(  0-N ,  1-C ) :   1.3408 B(  0-N ,  5-C ) :   1.1813 B(  0-N ,  6-C ) :   0.7930
B(  1-C ,  2-N ) :   1.3713 B(  1-C ,  3-H ) :   0.9608 B(  2-N ,  4-C ) :   1.1714
B(  2-N ,  7-C ) :   0.8100 B(  4-C ,  5-C ) :   1.5942 B(  4-C , 14-H ) :   0.9796
B(  5-C , 15-H ) :   0.9853 B(  6-C ,  8-C ) :   1.0680 B(  6-C ,  9-C ) :   1.0393
B(  6-C , 10-C ) :   1.0404 B(  7-C , 11-C ) :   1.0387 B(  7-C , 12-C ) :   1.0654
B(  7-C , 13-C ) :   1.0375 B(  8-C , 16-H ) :   0.9568 B(  8-C , 17-H ) :   0.9625
B(  8-C , 18-H ) :   0.9575 B(  9-C , 25-H ) :   0.9612 B(  9-C , 26-H ) :   0.9694
B(  9-C , 27-H ) :   0.9648 B( 10-C , 19-H ) :   0.9613 B( 10-C , 20-H ) :   0.9650
B( 10-C , 21-H ) :   0.9688 B( 11-C , 28-H ) :   0.9689 B( 11-C , 29-H ) :   0.9614
B( 11-C , 30-H ) :   0.9649 B( 12-C , 22-H ) :   0.9568 B( 12-C , 23-H ) :   0.9560
B( 12-C , 24-H ) :   0.9614 B( 13-C , 31-H ) :   0.9646 B( 13-C , 32-H ) :   0.9611
B( 13-C , 33-H ) :   0.9695

Dispersion correction           -0.005598573
FINAL SINGLE POINT ENERGY      -540.693585506470

DIPOLE MOMENT
-------------
                                X             Y             Z
Electronic contribution:     -0.01494       2.12234      -3.77859
Nuclear contribution   :      0.01618      -2.12505       3.78462
                        -----------------------------------------
Total Dipole Moment    :      0.00124      -0.00271       0.00603
                        -----------------------------------------
Magnitude (a.u.)       :      0.00673
Magnitude (Debye)      :      0.01710

Dispersion correction in the Hessian             ... Starting D4

VIBRATIONAL FREQUENCIES
-----------------------

Scaling factor for frequencies =  1.000000000  (already applied!)

   0:         0.00 cm**-1
   1:         0.00 cm**-1
   2:         0.00 cm**-1
   3:         0.00 cm**-1
   4:         0.00 cm**-1
   5:         0.00 cm**-1
   6:        37.83 cm**-1
   7:        54.21 cm**-1
   8:       111.56 cm**-1
   9:       144.81 cm**-1
  10:       164.85 cm**-1
  11:       239.38 cm**-1
  12:       255.15 cm**-1
  13:       266.95 cm**-1
  14:       275.21 cm**-1
  15:       291.08 cm**-1
  16:       306.89 cm**-1
  17:       335.10 cm**-1
  18:       340.39 cm**-1
  19:       342.81 cm**-1
  20:       348.87 cm**-1
  21:       365.49 cm**-1
  22:       373.85 cm**-1
  23:       411.93 cm**-1
  24:       445.78 cm**-1
  25:       473.58 cm**-1
  26:       478.15 cm**-1
  27:       523.84 cm**-1
  28:       575.98 cm**-1
  29:       636.97 cm**-1
  30:       683.89 cm**-1
  31:       691.11 cm**-1
  32:       777.05 cm**-1
  33:       848.96 cm**-1
  34:       852.72 cm**-1
  35:       898.59 cm**-1
  36:       925.97 cm**-1
  37:       949.14 cm**-1
  38:       950.35 cm**-1
  39:       957.25 cm**-1
  40:       959.80 cm**-1
  41:       973.41 cm**-1
  42:       977.47 cm**-1
  43:      1024.05 cm**-1
  44:      1040.63 cm**-1
  45:      1052.71 cm**-1
  46:      1054.07 cm**-1
  47:      1058.13 cm**-1
  48:      1059.67 cm**-1
  49:      1134.72 cm**-1
  50:      1156.46 cm**-1
  51:      1222.02 cm**-1
  52:      1236.60 cm**-1
  53:      1269.75 cm**-1
  54:      1274.72 cm**-1
  55:      1280.00 cm**-1
  56:      1281.58 cm**-1
  57:      1309.34 cm**-1
  58:      1360.98 cm**-1
  59:      1396.95 cm**-1
  60:      1397.69 cm**-1
  61:      1400.77 cm**-1
  62:      1403.25 cm**-1
  63:      1414.23 cm**-1
  64:      1414.82 cm**-1
  65:      1444.63 cm**-1
  66:      1445.86 cm**-1
  67:      1447.83 cm**-1
  68:      1448.13 cm**-1
  69:      1451.06 cm**-1
  70:      1452.07 cm**-1
  71:      1456.05 cm**-1
  72:      1461.92 cm**-1
  73:      1470.81 cm**-1
  74:      1472.63 cm**-1
  75:      1475.98 cm**-1
  76:      1480.87 cm**-1
  77:      1482.33 cm**-1
  78:      1491.46 cm**-1
  79:      1635.09 cm**-1
  80:      1648.79 cm**-1
  81:      3071.03 cm**-1
  82:      3072.05 cm**-1
  83:      3072.63 cm**-1
  84:      3072.74 cm**-1
  85:      3076.44 cm**-1
  86:      3076.48 cm**-1
  87:      3175.68 cm**-1
  88:      3175.78 cm**-1
  89:      3178.23 cm**-1
  90:      3179.14 cm**-1
  91:      3179.19 cm**-1
  92:      3179.94 cm**-1
  93:      3183.93 cm**-1
  94:      3184.43 cm**-1
  95:      3184.92 cm**-1
  96:      3185.40 cm**-1
  97:      3189.69 cm**-1
  98:      3189.90 cm**-1
  99:      3312.25 cm**-1
 100:      3321.27 cm**-1
 101:      3335.67 cm**-1

IR SPECTRUM
-----------

 Mode   freq       eps      Int      T**2         TX        TY        TZ
       cm**-1   L/(mol*cm) km/mol    a.u.
----------------------------------------------------------------------------
  6:     37.83   0.000000    0.00  0.000003  ( 0.000239  0.001772 -0.000203)
  7:     54.21   0.000008    0.04  0.000047  (-0.000634  0.006369  0.002489)
  8:    111.56   0.000006    0.03  0.000017  (-0.000530 -0.002390 -0.003339)
  9:    144.81   0.000020    0.10  0.000044  (-0.000248 -0.002746  0.006044)
 10:    164.85   0.000001    0.01  0.000003  (-0.000760  0.000523  0.001285)
 11:    239.38   0.000002    0.01  0.000002  ( 0.000504  0.001312  0.000339)
 12:    255.15   0.000003    0.02  0.000004  (-0.000256  0.001418 -0.001476)
 13:    266.95   0.000013    0.06  0.000015  ( 0.000897 -0.001696  0.003368)
 14:    275.21   0.000009    0.05  0.000011  ( 0.002786 -0.000695  0.001546)
 15:    291.08   0.000045    0.23  0.000048  (-0.004053  0.002213 -0.005164)
 16:    306.89   0.000006    0.03  0.000006  (-0.002065  0.000199  0.001191)
 17:    335.10   0.000013    0.06  0.000012  (-0.000410 -0.002804 -0.001948)
 18:    340.39   0.000039    0.20  0.000036  ( 0.000206  0.003934  0.004525)
 19:    342.81   0.000027    0.13  0.000024  ( 0.000286 -0.004706  0.001416)
 20:    348.87   0.000042    0.21  0.000037  (-0.000327  0.005609  0.002422)
 21:    365.49   0.000008    0.04  0.000007  ( 0.000524 -0.002281 -0.001258)
 22:    373.85   0.000006    0.03  0.000005  ( 0.000773  0.001423 -0.001576)
 23:    411.93   0.000012    0.06  0.000009  ( 0.002678  0.000198  0.001409)
 24:    445.78   0.000011    0.05  0.000007  (-0.000189  0.002340  0.001360)
 25:    473.58   0.000044    0.22  0.000029  (-0.004226  0.000349 -0.003334)
 26:    478.15   0.000021    0.11  0.000014  (-0.002323  0.002888  0.000501)
 27:    523.84   0.000010    0.05  0.000006  ( 0.002203 -0.000835  0.000834)
 28:    575.98   0.000154    0.78  0.000083  (-0.000422 -0.005099  0.007569)
 29:    636.97   0.001641    8.30  0.000804  ( 0.028328 -0.000606 -0.001158)
 30:    683.89   0.009881   49.93  0.004509  ( 0.002102  0.058112  0.033576)
 31:    691.11   0.003049   15.41  0.001377  ( 0.000087  0.032238  0.018373)
 32:    777.05   0.010556   53.35  0.004239  (-0.001461 -0.055975 -0.033226)
 33:    848.96   0.000013    0.07  0.000005  ( 0.000776  0.001129 -0.001741)
 34:    852.72   0.000248    1.25  0.000091  (-0.009514  0.000345 -0.000457)
 35:    898.59   0.005535   27.97  0.001922  ( 0.001892  0.038105  0.021606)
 36:    925.97   0.000039    0.19  0.000013  ( 0.001577  0.002640  0.001883)
 37:    949.14   0.000494    2.50  0.000162  (-0.001850 -0.010367 -0.007182)
 38:    950.35   0.000614    3.10  0.000202  (-0.000683  0.011733  0.007963)
 39:    957.25   0.000901    4.55  0.000294  (-0.009524  0.007823 -0.011907)
 40:    959.80   0.000669    3.38  0.000217  ( 0.000270  0.007982 -0.012393)
 41:    973.41   0.000067    0.34  0.000021  (-0.000615 -0.003959 -0.002333)
 42:    977.47   0.000040    0.20  0.000013  ( 0.000631  0.002959  0.001864)
 43:   1024.05   0.001297    6.56  0.000395  ( 0.019861 -0.000176 -0.000941)
 44:   1040.63   0.000072    0.37  0.000022  ( 0.002731  0.002725 -0.002604)
 45:   1052.71   0.000144    0.73  0.000043  ( 0.006101  0.002003 -0.001244)
 46:   1054.07   0.000009    0.05  0.000003  ( 0.001526 -0.000261 -0.000599)
 47:   1058.13   0.000070    0.35  0.000021  (-0.001126 -0.003755 -0.002276)
 48:   1059.67   0.000130    0.66  0.000038  (-0.000730  0.004610  0.004058)
 49:   1134.72   0.005140   25.98  0.001414  (-0.002325  0.019565 -0.032022)
 50:   1156.46   0.015854   80.12  0.004278  (-0.065338  0.000730  0.002902)
 51:   1222.02   0.002769   13.99  0.000707  (-0.014179 -0.010235  0.020034)
 52:   1236.60   0.076840  388.32  0.019391  ( 0.139228 -0.001389 -0.002132)
 53:   1269.75   0.000358    1.81  0.000088  (-0.000302 -0.003412  0.008728)
 54:   1274.72   0.001967    9.94  0.000481  (-0.019740  0.007276 -0.006229)
 55:   1280.00   0.000542    2.74  0.000132  ( 0.005757  0.008039  0.005855)
 56:   1281.58   0.006382   32.25  0.001554  ( 0.000114 -0.033934 -0.020060)
 57:   1309.34   0.000119    0.60  0.000028  ( 0.005253 -0.000324  0.000741)
 58:   1360.98   0.005184   26.20  0.001189  ( 0.000628 -0.017268  0.029834)
 59:   1396.95   0.004074   20.59  0.000910  ( 0.001224  0.027511  0.012318)
 60:   1397.69   0.006272   31.70  0.001400  ( 0.000851 -0.030254 -0.022007)
 61:   1400.77   0.009476   47.89  0.002111  ( 0.013313 -0.022471  0.037799)
 62:   1403.25   0.003019   15.26  0.000671  (-0.011906 -0.014528  0.017848)
 63:   1414.23   0.001882    9.51  0.000415  ( 0.020375 -0.000238 -0.000216)
 64:   1414.82   0.001281    6.47  0.000283  ( 0.015358 -0.002553  0.006337)
 65:   1444.63   0.000099    0.50  0.000021  ( 0.001893 -0.004005 -0.001314)
 66:   1445.86   0.000121    0.61  0.000026  (-0.004135  0.002587  0.001540)
 67:   1447.83   0.000324    1.64  0.000070  ( 0.007522  0.001534  0.003306)
 68:   1448.13   0.000037    0.19  0.000008  ( 0.001420 -0.002343  0.000710)
 69:   1451.06   0.000035    0.18  0.000007  ( 0.000255  0.002075  0.001756)
 70:   1452.07   0.000253    1.28  0.000054  ( 0.004777 -0.002754  0.004901)
 71:   1456.05   0.000583    2.95  0.000125  (-0.010801  0.000441 -0.002857)
 72:   1461.92   0.005660   28.60  0.001208  ( 0.002870 -0.016903  0.030237)
 73:   1470.81   0.001640    8.29  0.000348  ( 0.001936  0.017385  0.006481)
 74:   1472.63   0.001683    8.51  0.000357  ( 0.000013 -0.015811 -0.010328)
 75:   1475.98   0.000280    1.41  0.000059  ( 0.006933  0.000382 -0.003311)
 76:   1480.87   0.002074   10.48  0.000437  (-0.020199 -0.000948  0.005314)
 77:   1482.33   0.000878    4.43  0.000185  ( 0.009533 -0.004338  0.008663)
 78:   1491.46   0.000111    0.56  0.000023  ( 0.004782  0.000073  0.000591)
 79:   1635.09   0.028965  146.38  0.005528  ( 0.074138 -0.003809  0.004133)
 80:   1648.79   0.006247   31.57  0.001182  (-0.027452 -0.010442  0.017883)
 81:   3071.03   0.003176   16.05  0.000323  ( 0.001038  0.011042  0.014132)
 82:   3072.05   0.003362   16.99  0.000341  ( 0.006909  0.016337 -0.005182)
 83:   3072.63   0.003226   16.30  0.000328  ( 0.003920 -0.005841 -0.016678)
 84:   3072.74   0.002786   14.08  0.000283  (-0.003245  0.014257 -0.008313)
 85:   3076.44   0.000293    1.48  0.000030  (-0.005174  0.001689  0.000255)
 86:   3076.48   0.000232    1.17  0.000024  (-0.003214 -0.000660 -0.003575)
 87:   3175.68   0.001317    6.65  0.000129  (-0.005319  0.002783 -0.009662)
 88:   3175.78   0.002561   12.94  0.000252  (-0.004033  0.015186  0.002170)
 89:   3178.23   0.002254   11.39  0.000221  ( 0.002398 -0.014436 -0.002666)
 90:   3179.14   0.001681    8.50  0.000165  ( 0.000428  0.011675  0.005345)
 91:   3179.19   0.004214   21.29  0.000414  (-0.006506 -0.002581 -0.019095)
 92:   3179.94   0.004003   20.23  0.000393  ( 0.004753  0.010402 -0.016189)
 93:   3183.93   0.001312    6.63  0.000129  (-0.005029  0.009875  0.002405)
 94:   3184.43   0.001019    5.15  0.000100  ( 0.003012 -0.008949 -0.003272)
 95:   3184.92   0.001236    6.25  0.000121  (-0.009871 -0.001288 -0.004694)
 96:   3185.40   0.001264    6.39  0.000124  (-0.003565  0.002876 -0.010143)
 97:   3189.69   0.006716   33.94  0.000657  ( 0.024095  0.004819 -0.007299)
 98:   3189.90   0.003450   17.44  0.000338  (-0.017124  0.003828 -0.005443)
 99:   3312.25   0.005532   27.96  0.000521  ( 0.020589  0.004797 -0.008621)
100:   3321.27   0.012114   61.22  0.001138  ( 0.004443 -0.017218  0.028671)
101:   3335.67   0.003153   15.94  0.000295  ( 0.009137 -0.007474  0.012477)

--------------------------
THERMOCHEMISTRY AT 298.15K
--------------------------

Temperature         ... 298.15 K
Pressure            ... 1.00 atm
Total Mass          ... 181.30 AMU

Throughout the following assumptions are being made:
  (1) The electronic state is orbitally nondegenerate
  (2) There are no thermally accessible electronically excited states
  (3) Hindered rotations indicated by low frequency modes are not
      treated as such but are treated as vibrations and this may
      cause some error
  (4) All equations used are the standard statistical mechanics
      equations for an ideal gas
  (5) All vibrations are strictly harmonic

freq.      37.83  E(vib)   ...       0.54
freq.      54.21  E(vib)   ...       0.52
freq.     111.56  E(vib)   ...       0.45
freq.     144.81  E(vib)   ...       0.41
freq.     164.85  E(vib)   ...       0.39
freq.     239.38  E(vib)   ...       0.31
freq.     255.15  E(vib)   ...       0.30
freq.     266.95  E(vib)   ...       0.29
freq.     275.21  E(vib)   ...       0.28
freq.     291.08  E(vib)   ...       0.27
freq.     306.89  E(vib)   ...       0.26
freq.     335.10  E(vib)   ...       0.24
freq.     340.39  E(vib)   ...       0.23
freq.     342.81  E(vib)   ...       0.23
freq.     348.87  E(vib)   ...       0.23
freq.     365.49  E(vib)   ...       0.22
freq.     373.85  E(vib)   ...       0.21
freq.     411.93  E(vib)   ...       0.19
freq.     445.78  E(vib)   ...       0.17
freq.     473.58  E(vib)   ...       0.15
freq.     478.15  E(vib)   ...       0.15
freq.     523.84  E(vib)   ...       0.13
freq.     575.98  E(vib)   ...       0.11
freq.     636.97  E(vib)   ...       0.09
freq.     683.89  E(vib)   ...       0.07
freq.     691.11  E(vib)   ...       0.07
freq.     777.05  E(vib)   ...       0.05
freq.     848.96  E(vib)   ...       0.04
freq.     852.72  E(vib)   ...       0.04
freq.     898.59  E(vib)   ...       0.03
freq.     925.97  E(vib)   ...       0.03
freq.     949.14  E(vib)   ...       0.03
freq.     950.35  E(vib)   ...       0.03
freq.     957.25  E(vib)   ...       0.03
freq.     959.80  E(vib)   ...       0.03
freq.     973.41  E(vib)   ...       0.03
freq.     977.47  E(vib)   ...       0.03
freq.    1024.05  E(vib)   ...       0.02
freq.    1040.63  E(vib)   ...       0.02
freq.    1052.71  E(vib)   ...       0.02
freq.    1054.07  E(vib)   ...       0.02
freq.    1058.13  E(vib)   ...       0.02
freq.    1059.67  E(vib)   ...       0.02
freq.    1134.72  E(vib)   ...       0.01
freq.    1156.46  E(vib)   ...       0.01
freq.    1222.02  E(vib)   ...       0.01
freq.    1236.60  E(vib)   ...       0.01
freq.    1269.75  E(vib)   ...       0.01
freq.    1274.72  E(vib)   ...       0.01
freq.    1280.00  E(vib)   ...       0.01
freq.    1281.58  E(vib)   ...       0.01
freq.    1309.34  E(vib)   ...       0.01
freq.    1360.98  E(vib)   ...       0.01
freq.    1396.95  E(vib)   ...       0.00
freq.    1397.69  E(vib)   ...       0.00
freq.    1400.77  E(vib)   ...       0.00
freq.    1403.25  E(vib)   ...       0.00
freq.    1414.23  E(vib)   ...       0.00
freq.    1414.82  E(vib)   ...       0.00
freq.    1444.63  E(vib)   ...       0.00
freq.    1445.86  E(vib)   ...       0.00
freq.    1447.83  E(vib)   ...       0.00
freq.    1448.13  E(vib)   ...       0.00
freq.    1451.06  E(vib)   ...       0.00
freq.    1452.07  E(vib)   ...       0.00
freq.    1456.05  E(vib)   ...       0.00
freq.    1461.92  E(vib)   ...       0.00
freq.    1470.81  E(vib)   ...       0.00
freq.    1472.63  E(vib)   ...       0.00
freq.    1475.98  E(vib)   ...       0.00
freq.    1480.87  E(vib)   ...       0.00
freq.    1482.33  E(vib)   ...       0.00
freq.    1491.46  E(vib)   ...       0.00
freq.    1635.09  E(vib)   ...       0.00
freq.    1648.79  E(vib)   ...       0.00
freq.    3071.03  E(vib)   ...       0.00
freq.    3072.05  E(vib)   ...       0.00
freq.    3072.63  E(vib)   ...       0.00
freq.    3072.74  E(vib)   ...       0.00
freq.    3076.44  E(vib)   ...       0.00
freq.    3076.48  E(vib)   ...       0.00
freq.    3175.68  E(vib)   ...       0.00
freq.    3175.78  E(vib)   ...       0.00
freq.    3178.23  E(vib)   ...       0.00
freq.    3179.14  E(vib)   ...       0.00
freq.    3179.19  E(vib)   ...       0.00
freq.    3179.94  E(vib)   ...       0.00
freq.    3183.93  E(vib)   ...       0.00
freq.    3184.43  E(vib)   ...       0.00
freq.    3184.92  E(vib)   ...       0.00
freq.    3185.40  E(vib)   ...       0.00
freq.    3189.69  E(vib)   ...       0.00
freq.    3189.90  E(vib)   ...       0.00
freq.    3312.25  E(vib)   ...       0.00
freq.    3321.27  E(vib)   ...       0.00
freq.    3335.67  E(vib)   ...       0.00

------------
INNER ENERGY
------------

The inner energy is: U= E(el) + E(ZPE) + E(vib) + E(rot) + E(trans)
    E(el)   - is the total energy from the electronic structure calculation
              = E(kin-el) + E(nuc-el) + E(el-el) + E(nuc-nuc)
    E(ZPE)  - the the zero temperature vibrational energy from the frequency calculation
    E(vib)  - the the finite temperature correction to E(ZPE) due to population
              of excited vibrational states
    E(rot)  - is the rotational thermal energy
    E(trans)- is the translational thermal energy

Summary of contributions to the inner energy U:
Electronic energy                ...   -540.69358551 Eh
Zero point energy                ...      0.31177134 Eh     195.64 kcal/mol
Thermal vibrational correction   ...      0.01140775 Eh       7.16 kcal/mol
Thermal rotational correction    ...      0.00141627 Eh       0.89 kcal/mol
Thermal translational correction ...      0.00141627 Eh       0.89 kcal/mol
-----------------------------------------------------------------------
Total thermal energy                   -540.36757387 Eh

Summary of corrections to the electronic energy:
(perhaps to be used in another calculation)
Total thermal correction                  0.01424030 Eh       8.94 kcal/mol
Non-thermal (ZPE) correction              0.31177134 Eh     195.64 kcal/mol
-----------------------------------------------------------------------
Total correction                          0.32601164 Eh     204.57 kcal/mol

--------
ENTHALPY
--------

The enthalpy is H = U + kB*T
                kB is Boltzmann's constant
Total free energy                 ...   -540.36757387 Eh
Thermal Enthalpy correction       ...      0.00094421 Eh       0.59 kcal/mol
-----------------------------------------------------------------------
Total Enthalpy                    ...   -540.36662966 Eh

Note: Only C1 symmetry has been detected, increase convergence thresholds
      if your molecule has a higher symmetry. Symmetry factor of 1.0 is
      used for the rotational entropy correction.

Rotational constants in cm-1:     0.055157     0.014877     0.013881

                             ****ORCA TERMINATED NORMALLY****
TOTAL RUN TIME: 0 days 2 hours 47 minutes 14 seconds 821 msec
