                         Program Version 5.0.4 -  RELEASE  -
|  1> # ORCA 5.0.4 - /users/bwb16179/postgrad/2024_03/DFT_Crest_Conformers/Opt/prot/5_prot_aq_1.inp # write input file
|  2> # Basic Mode
|  3> #
|  4> ! Opt Freq wB97X Def2-SVP D4 SlowConv TightSCF Defgrid2 Def2/J RIJCOSX CPCM(Water)
|  5>
|  6>
|  7>
|  8> %maxcore 4500
|  9>
| 10> %geom
| 11> Maxiter 150
| 12> END
| 13>
| 14> * xyzfile 1 1 5_prot_aq_1.xyz
| 15>
| 16>                          ****END OF INPUT****
 Total Charge           Charge          ....    1
 Multiplicity           Mult            ....    1
 Number of Electrons    NEL             ....  100
Dispersion correction           -0.005606951
FINAL SINGLE POINT ENERGY      -540.690200963645
Dispersion correction            ... Starting D4
Dispersion correction           -0.005590826
FINAL SINGLE POINT ENERGY      -540.694166657433
Dispersion correction            ... Starting D4
Dispersion correction           -0.005587792
FINAL SINGLE POINT ENERGY      -540.694282411524
Dispersion correction            ... Starting D4
Dispersion correction           -0.005587253
FINAL SINGLE POINT ENERGY      -540.694321689466
Dispersion correction            ... Starting D4
Dispersion correction           -0.005587078
FINAL SINGLE POINT ENERGY      -540.694325985396
Dispersion correction            ... Starting D4
                    ***********************HURRAY********************

CARTESIAN COORDINATES (ANGSTROEM)
---------------------------------
  N     -1.087660   -0.228145    0.000337
  C     -0.000018    0.541441    0.000939
  N      1.087642   -0.228121    0.000343
  H     -0.000030    1.628182    0.001792
  C      0.679490   -1.545461   -0.000697
  C     -0.679479   -1.545476   -0.000668
  C     -2.515011    0.224144   -0.000560
  C      2.514982    0.224198    0.000473
  C     -2.561090    1.748806    0.002297
  C     -3.180514   -0.327362    1.261121
  C     -3.177102   -0.322759   -1.266032
  C      3.178477   -0.323834   -1.263779
  C      3.179108   -0.326152    1.263380
  C      2.561027    1.748864    0.001862
  H      1.379511   -2.378311   -0.001361
  H     -1.379481   -2.378342   -0.001501
  H     -2.087194    2.171222    0.901633
  H     -3.615467    2.058715    0.002083
  H     -2.085882    2.174746   -0.894678
  H     -3.168343   -1.422840   -1.287075
  H     -2.667790    0.054324   -2.165828
  H     -4.225561    0.008109   -1.294470
  H      3.170921   -1.426288    1.281267
  H      2.670977    0.048129    2.165011
  H      4.227461    0.005085    1.291224
  H     -3.172628   -1.427512    1.277981
  H     -4.228826    0.004065    1.288184
  H     -2.673273    0.045965    2.163647
  H      4.226867    0.007308   -1.291465
  H      2.670002    0.052236   -2.164472
  H      3.170112   -1.423934   -1.283773
  H      3.615396    2.058796    0.001907
  H      2.086665    2.172199    0.900518
  H      2.086263    2.173864   -0.895796

 Multiplicity           Mult            ....    1
 Number of Electrons    NEL             ....  100
 Basis Dimension        Dim             ....  287

ORBITAL ENERGIES
----------------

  NO   OCC          E(Eh)            E(eV)
   0   2.0000     -14.507834      -394.7782
   1   2.0000     -14.507784      -394.7769
   2   2.0000     -10.383574      -282.5514
   3   2.0000     -10.345770      -281.5227
   4   2.0000     -10.345745      -281.5220
   5   2.0000     -10.333176      -281.1800
   6   2.0000     -10.332591      -281.1641
   7   2.0000     -10.276297      -279.6323
   8   2.0000     -10.276285      -279.6319
   9   2.0000     -10.273870      -279.5662
  10   2.0000     -10.273866      -279.5661
  11   2.0000     -10.273855      -279.5658
  12   2.0000     -10.273852      -279.5657
  13   2.0000      -1.213216       -33.0133
  14   2.0000      -1.095159       -29.8008
  15   2.0000      -0.980210       -26.6729
  16   2.0000      -0.932805       -25.3829
  17   2.0000      -0.921412       -25.0729
  18   2.0000      -0.832610       -22.6565
  19   2.0000      -0.825453       -22.4617
  20   2.0000      -0.823468       -22.4077
  21   2.0000      -0.822808       -22.3897
  22   2.0000      -0.792068       -21.5533
  23   2.0000      -0.764727       -20.8093
  24   2.0000      -0.724640       -19.7185
  25   2.0000      -0.702584       -19.1183
  26   2.0000      -0.644199       -17.5295
  27   2.0000      -0.627757       -17.0821
  28   2.0000      -0.605527       -16.4772
  29   2.0000      -0.587233       -15.9794
  30   2.0000      -0.582803       -15.8589
  31   2.0000      -0.577150       -15.7050
  32   2.0000      -0.576625       -15.6908
  33   2.0000      -0.555449       -15.1145
  34   2.0000      -0.554249       -15.0819
  35   2.0000      -0.545639       -14.8476
  36   2.0000      -0.518995       -14.1226
  37   2.0000      -0.501689       -13.6517
  38   2.0000      -0.499223       -13.5845
  39   2.0000      -0.497189       -13.5292
  40   2.0000      -0.495949       -13.4955
  41   2.0000      -0.487120       -13.2552
  42   2.0000      -0.480276       -13.0690
  43   2.0000      -0.480055       -13.0630
  44   2.0000      -0.467478       -12.7207
  45   2.0000      -0.454198       -12.3593
  46   2.0000      -0.453386       -12.3373
  47   2.0000      -0.451225       -12.2784
  48   2.0000      -0.409980       -11.1561
  49   2.0000      -0.375136       -10.2080
  50   0.0000       0.063253         1.7212
  51   0.0000       0.093687         2.5493
  52   0.0000       0.131017         3.5652
  53   0.0000       0.143158         3.8955
  54   0.0000       0.164229         4.4689

MULLIKEN ATOMIC CHARGES
-----------------------
   0 N :   -0.179654
   1 C :    0.217816
   2 N :   -0.179653
   3 H :    0.128013
   4 C :    0.057559
   5 C :    0.057562
   6 C :   -0.239326
   7 C :   -0.239328
   8 C :    0.001765
   9 C :    0.036690
  10 C :    0.036872
  11 C :    0.036790
  12 C :    0.036775
  13 C :    0.001762
  14 H :    0.106248
  15 H :    0.106248
  16 H :    0.060399
  17 H :    0.064229
  18 H :    0.060390
  19 H :    0.050164
  20 H :    0.052719
  21 H :    0.058043
  22 H :    0.050175
  23 H :    0.052740
  24 H :    0.058045
  25 H :    0.050186
  26 H :    0.058046
  27 H :    0.052754
  28 H :    0.058045
  29 H :    0.052733
  30 H :    0.050174
  31 H :    0.064229
  32 H :    0.060397
  33 H :    0.060393
Sum of atomic charges:    1.0000000

LOEWDIN ATOMIC CHARGES
----------------------
   0 N :    0.097034
   1 C :    0.120059
   2 N :    0.097034
   3 H :    0.063235
   4 C :    0.017605
   5 C :    0.017605
   6 C :    0.017252
   7 C :    0.017252
   8 C :   -0.049063
   9 C :   -0.044916
  10 C :   -0.044903
  11 C :   -0.044909
  12 C :   -0.044911
  13 C :   -0.049063
  14 H :    0.059793
  15 H :    0.059793
  16 H :    0.038010
  17 H :    0.048655
  18 H :    0.037995
  19 H :    0.034754
  20 H :    0.036971
  21 H :    0.043710
  22 H :    0.034754
  23 H :    0.036979
  24 H :    0.043716
  25 H :    0.034753
  26 H :    0.043721
  27 H :    0.036984
  28 H :    0.043714
  29 H :    0.036977
  30 H :    0.034753
  31 H :    0.048654
  32 H :    0.038004
  33 H :    0.038001

  Mayer bond orders larger than 0.100000
B(  0-N ,  1-C ) :   1.3561 B(  0-N ,  5-C ) :   1.1661 B(  0-N ,  6-C ) :   0.8095
B(  1-C ,  2-N ) :   1.3561 B(  1-C ,  3-H ) :   0.9584 B(  2-N ,  4-C ) :   1.1661
B(  2-N ,  7-C ) :   0.8095 B(  4-C ,  5-C ) :   1.6207 B(  4-C , 14-H ) :   0.9824
B(  5-C , 15-H ) :   0.9824 B(  6-C ,  8-C ) :   1.0649 B(  6-C ,  9-C ) :   1.0384
B(  6-C , 10-C ) :   1.0383 B(  7-C , 11-C ) :   1.0384 B(  7-C , 12-C ) :   1.0384
B(  7-C , 13-C ) :   1.0649 B(  8-C , 16-H ) :   0.9568 B(  8-C , 17-H ) :   0.9612
B(  8-C , 18-H ) :   0.9568 B(  9-C , 25-H ) :   0.9612 B(  9-C , 26-H ) :   0.9692
B(  9-C , 27-H ) :   0.9648 B( 10-C , 19-H ) :   0.9612 B( 10-C , 20-H ) :   0.9648
B( 10-C , 21-H ) :   0.9693 B( 11-C , 28-H ) :   0.9693 B( 11-C , 29-H ) :   0.9648
B( 11-C , 30-H ) :   0.9612 B( 12-C , 22-H ) :   0.9612 B( 12-C , 23-H ) :   0.9648
B( 12-C , 24-H ) :   0.9692 B( 13-C , 31-H ) :   0.9612 B( 13-C , 32-H ) :   0.9568
B( 13-C , 33-H ) :   0.9568

Dispersion correction           -0.005587239
FINAL SINGLE POINT ENERGY      -540.694327395346

DIPOLE MOMENT
-------------
                                X             Y             Z
Electronic contribution:      0.00005      -4.00486       0.00307
Nuclear contribution   :     -0.00005       4.05122      -0.00314
                        -----------------------------------------
Total Dipole Moment    :     -0.00000       0.04636      -0.00007
                        -----------------------------------------
Magnitude (a.u.)       :      0.04636
Magnitude (Debye)      :      0.11783

Dispersion correction in the Hessian             ... Starting D4

VIBRATIONAL FREQUENCIES
-----------------------

Scaling factor for frequencies =  1.000000000  (already applied!)

   0:         0.00 cm**-1
   1:         0.00 cm**-1
   2:         0.00 cm**-1
   3:         0.00 cm**-1
   4:         0.00 cm**-1
   5:         0.00 cm**-1
   6:        26.23 cm**-1
   7:        38.65 cm**-1
   8:       120.25 cm**-1
   9:       146.44 cm**-1
  10:       148.79 cm**-1
  11:       223.75 cm**-1
  12:       229.82 cm**-1
  13:       256.47 cm**-1
  14:       262.39 cm**-1
  15:       271.06 cm**-1
  16:       278.70 cm**-1
  17:       330.16 cm**-1
  18:       332.33 cm**-1
  19:       344.21 cm**-1
  20:       354.39 cm**-1
  21:       365.81 cm**-1
  22:       371.56 cm**-1
  23:       401.19 cm**-1
  24:       443.61 cm**-1
  25:       468.55 cm**-1
  26:       469.90 cm**-1
  27:       520.27 cm**-1
  28:       578.05 cm**-1
  29:       639.38 cm**-1
  30:       678.70 cm**-1
  31:       692.06 cm**-1
  32:       774.75 cm**-1
  33:       845.55 cm**-1
  34:       849.41 cm**-1
  35:       891.59 cm**-1
  36:       923.39 cm**-1
  37:       948.44 cm**-1
  38:       948.55 cm**-1
  39:       959.04 cm**-1
  40:       959.69 cm**-1
  41:       968.05 cm**-1
  42:       968.39 cm**-1
  43:      1023.17 cm**-1
  44:      1040.51 cm**-1
  45:      1049.85 cm**-1
  46:      1050.67 cm**-1
  47:      1054.06 cm**-1
  48:      1054.71 cm**-1
  49:      1126.35 cm**-1
  50:      1151.16 cm**-1
  51:      1222.80 cm**-1
  52:      1236.26 cm**-1
  53:      1266.05 cm**-1
  54:      1269.85 cm**-1
  55:      1277.58 cm**-1
  56:      1279.68 cm**-1
  57:      1304.25 cm**-1
  58:      1356.15 cm**-1
  59:      1396.08 cm**-1
  60:      1396.30 cm**-1
  61:      1401.35 cm**-1
  62:      1401.65 cm**-1
  63:      1413.50 cm**-1
  64:      1413.71 cm**-1
  65:      1441.71 cm**-1
  66:      1441.71 cm**-1
  67:      1442.45 cm**-1
  68:      1448.15 cm**-1
  69:      1448.23 cm**-1
  70:      1449.68 cm**-1
  71:      1453.95 cm**-1
  72:      1462.19 cm**-1
  73:      1472.00 cm**-1
  74:      1472.16 cm**-1
  75:      1476.38 cm**-1
  76:      1478.28 cm**-1
  77:      1478.65 cm**-1
  78:      1489.29 cm**-1
  79:      1636.60 cm**-1
  80:      1654.19 cm**-1
  81:      3071.29 cm**-1
  82:      3071.31 cm**-1
  83:      3072.82 cm**-1
  84:      3072.83 cm**-1
  85:      3076.45 cm**-1
  86:      3076.51 cm**-1
  87:      3174.82 cm**-1
  88:      3174.94 cm**-1
  89:      3179.27 cm**-1
  90:      3179.28 cm**-1
  91:      3180.27 cm**-1
  92:      3180.29 cm**-1
  93:      3184.71 cm**-1
  94:      3184.72 cm**-1
  95:      3185.25 cm**-1
  96:      3185.29 cm**-1
  97:      3189.94 cm**-1
  98:      3190.05 cm**-1
  99:      3306.58 cm**-1
 100:      3323.61 cm**-1
 101:      3335.77 cm**-1

IR SPECTRUM
-----------

 Mode   freq       eps      Int      T**2         TX        TY        TZ
       cm**-1   L/(mol*cm) km/mol    a.u.
----------------------------------------------------------------------------
  6:     26.23   0.000000    0.00  0.000000  ( 0.000019 -0.000012  0.000003)
  7:     38.65   0.000005    0.02  0.000038  ( 0.000007 -0.000020  0.006136)
  8:    120.25   0.000012    0.06  0.000032  ( 0.000009 -0.000042 -0.005630)
  9:    146.44   0.000028    0.14  0.000059  (-0.000001  0.007667 -0.000009)
 10:    148.79   0.000000    0.00  0.000000  (-0.000020 -0.000038  0.000000)
 11:    223.75   0.000006    0.03  0.000008  (-0.000008 -0.000047  0.002829)
 12:    229.82   0.000000    0.00  0.000000  (-0.000004 -0.000029  0.000003)
 13:    256.47   0.000011    0.06  0.000014  (-0.003699 -0.000005  0.000008)
 14:    262.39   0.000018    0.09  0.000021  ( 0.000003 -0.004617 -0.000002)
 15:    271.06   0.000009    0.04  0.000010  ( 0.000001 -0.003137 -0.000014)
 16:    278.70   0.000002    0.01  0.000002  ( 0.001335 -0.000001  0.000004)
 17:    330.16   0.000000    0.00  0.000000  ( 0.000003 -0.000002  0.000005)
 18:    332.33   0.000004    0.02  0.000003  (-0.000000 -0.000015 -0.001828)
 19:    344.21   0.000115    0.58  0.000104  (-0.000019 -0.000060  0.010219)
 20:    354.39   0.000026    0.13  0.000023  ( 0.000000  0.004802  0.000015)
 21:    365.81   0.000000    0.00  0.000000  (-0.000029 -0.000023 -0.000003)
 22:    371.56   0.000003    0.01  0.000002  (-0.001512 -0.000002 -0.000045)
 23:    401.19   0.000002    0.01  0.000001  (-0.001173  0.000000 -0.000006)
 24:    443.61   0.000011    0.05  0.000007  ( 0.000026  0.000010 -0.002736)
 25:    468.55   0.000000    0.00  0.000000  ( 0.000055  0.000131  0.000002)
 26:    469.90   0.000025    0.13  0.000017  (-0.000002  0.004099  0.000044)
 27:    520.27   0.000093    0.47  0.000056  (-0.007472 -0.000000  0.000014)
 28:    578.05   0.000159    0.80  0.000086  ( 0.000000 -0.009253 -0.000021)
 29:    639.38   0.001368    6.92  0.000668  (-0.025843 -0.000000  0.000034)
 30:    678.70   0.013809   69.79  0.006349  ( 0.000027  0.000038 -0.079683)
 31:    692.06   0.000000    0.00  0.000000  (-0.000051  0.000019  0.000003)
 32:    774.75   0.008580   43.36  0.003456  ( 0.000008 -0.000015 -0.058789)
 33:    845.55   0.000019    0.10  0.000007  ( 0.000000  0.002647 -0.000046)
 34:    849.41   0.000142    0.72  0.000052  (-0.007226  0.000000 -0.000028)
 35:    891.59   0.006172   31.19  0.002160  ( 0.000045 -0.000039  0.046480)
 36:    923.39   0.000000    0.00  0.000000  ( 0.000021  0.000007 -0.000005)
 37:    948.44   0.001062    5.36  0.000349  (-0.000014 -0.000045  0.018689)
 38:    948.55   0.000000    0.00  0.000000  ( 0.000018  0.000020 -0.000193)
 39:    959.04   0.001447    7.31  0.000471  (-0.000001 -0.021699 -0.000098)
 40:    959.69   0.000022    0.11  0.000007  (-0.002658 -0.000002  0.000045)
 41:    968.05   0.000036    0.18  0.000012  ( 0.000022  0.000101 -0.003423)
 42:    968.39   0.000000    0.00  0.000000  (-0.000021  0.000013  0.000006)
 43:   1023.17   0.001367    6.91  0.000417  ( 0.020418 -0.000002  0.000010)
 44:   1040.51   0.000128    0.65  0.000038  (-0.000001  0.006190  0.000011)
 45:   1049.85   0.000033    0.17  0.000010  ( 0.000003 -0.003129 -0.000040)
 46:   1050.67   0.000116    0.58  0.000034  (-0.005860 -0.000001 -0.000010)
 47:   1054.06   0.000000    0.00  0.000000  ( 0.000027 -0.000007  0.000007)
 48:   1054.71   0.000204    1.03  0.000060  (-0.000026  0.000003  0.007763)
 49:   1126.35   0.004495   22.71  0.001245  ( 0.000021 -0.035288 -0.000006)
 50:   1151.16   0.018503   93.50  0.005016  ( 0.070822  0.000011  0.000009)
 51:   1222.80   0.001352    6.83  0.000345  (-0.000003  0.018574 -0.000038)
 52:   1236.26   0.080776  408.21  0.020390  (-0.142793 -0.000002 -0.000049)
 53:   1266.05   0.000017    0.08  0.000004  ( 0.002021  0.000004 -0.000004)
 54:   1269.85   0.000660    3.34  0.000162  ( 0.000002 -0.012736  0.000063)
 55:   1277.58   0.000000    0.00  0.000000  (-0.000129  0.000043 -0.000011)
 56:   1279.68   0.006459   32.64  0.001575  ( 0.000074 -0.000012 -0.039686)
 57:   1304.25   0.000027    0.14  0.000007  (-0.002558  0.000000  0.000009)
 58:   1356.15   0.004192   21.18  0.000965  (-0.000000 -0.031058 -0.000011)
 59:   1396.08   0.000000    0.00  0.000000  (-0.000068 -0.000072 -0.000050)
 60:   1396.30   0.010705   54.10  0.002392  ( 0.000072 -0.000025 -0.048913)
 61:   1401.35   0.000169    0.85  0.000038  ( 0.006128 -0.000030  0.000093)
 62:   1401.65   0.013541   68.43  0.003015  (-0.000005 -0.054907 -0.000007)
 63:   1413.50   0.002341   11.83  0.000517  ( 0.022736 -0.000017  0.000046)
 64:   1413.71   0.000234    1.18  0.000052  ( 0.000043  0.007190 -0.000038)
 65:   1441.71   0.000000    0.00  0.000000  (-0.000043 -0.000036 -0.000059)
 66:   1441.71   0.000070    0.35  0.000015  ( 0.000039  0.000079 -0.003895)
 67:   1442.45   0.000162    0.82  0.000035  ( 0.005918  0.000000  0.000014)
 68:   1448.15   0.000000    0.00  0.000000  ( 0.000096  0.000110 -0.000011)
 69:   1448.23   0.000074    0.38  0.000016  (-0.000046 -0.000242 -0.003995)
 70:   1449.68   0.000293    1.48  0.000063  ( 0.000005 -0.007948  0.000068)
 71:   1453.95   0.001185    5.99  0.000254  ( 0.015945 -0.000002  0.000002)
 72:   1462.19   0.004221   21.33  0.000901  (-0.000000 -0.030016  0.000078)
 73:   1472.00   0.000000    0.00  0.000000  (-0.000077  0.000068 -0.000014)
 74:   1472.16   0.003542   17.90  0.000751  ( 0.000046 -0.000102 -0.027400)
 75:   1476.38   0.000046    0.23  0.000010  (-0.003103 -0.000006 -0.000053)
 76:   1478.28   0.001008    5.09  0.000213  ( 0.000031  0.014588 -0.000071)
 77:   1478.65   0.001941    9.81  0.000410  (-0.020239  0.000021 -0.000081)
 78:   1489.29   0.000040    0.20  0.000008  (-0.000001  0.002884 -0.000032)
 79:   1636.60   0.037442  189.22  0.007139  ( 0.084495  0.000002  0.000017)
 80:   1654.19   0.002871   14.51  0.000542  ( 0.000004 -0.023272 -0.000024)
 81:   3071.29   0.001079    5.45  0.000110  ( 0.010467 -0.000315  0.000049)
 82:   3071.31   0.004631   23.40  0.000471  ( 0.000153  0.021691  0.000086)
 83:   3072.82   0.000075    0.38  0.000008  ( 0.000037  0.000051 -0.002761)
 84:   3072.83   0.006532   33.01  0.000663  ( 0.000018  0.000078 -0.025755)
 85:   3076.45   0.000519    2.62  0.000053  (-0.007255 -0.000043  0.000034)
 86:   3076.51   0.000227    1.15  0.000023  ( 0.000069 -0.004800  0.000031)
 87:   3174.82   0.003857   19.49  0.000379  (-0.000011 -0.000016  0.019471)
 88:   3174.94   0.000000    0.00  0.000000  (-0.000019 -0.000007  0.000133)
 89:   3179.27   0.003270   16.53  0.000321  (-0.000036 -0.000223  0.017915)
 90:   3179.28   0.000006    0.03  0.000001  (-0.000061 -0.000087 -0.000779)
 91:   3180.27   0.000560    2.83  0.000055  ( 0.007372  0.000742  0.000068)
 92:   3180.29   0.007888   39.86  0.000774  (-0.000198  0.027819  0.000150)
 93:   3184.71   0.001814    9.17  0.000178  ( 0.000019 -0.000043 -0.013333)
 94:   3184.72   0.000004    0.02  0.000000  (-0.000045 -0.000008 -0.000594)
 95:   3185.25   0.000032    0.16  0.000003  (-0.001784  0.000015  0.000020)
 96:   3185.29   0.002103   10.63  0.000206  (-0.000000  0.014353 -0.000005)
 97:   3189.94   0.009642   48.73  0.000943  ( 0.030713 -0.000017  0.000020)
 98:   3190.05   0.000775    3.92  0.000076  (-0.000066 -0.008707  0.000030)
 99:   3306.58   0.004746   23.98  0.000448  ( 0.021163  0.000001  0.000003)
100:   3323.61   0.007143   36.10  0.000671  (-0.000002  0.025897  0.000024)
101:   3335.77   0.007762   39.22  0.000726  ( 0.000000 -0.026946 -0.000026)

--------------------------
THERMOCHEMISTRY AT 298.15K
--------------------------

Temperature         ... 298.15 K
Pressure            ... 1.00 atm
Total Mass          ... 181.30 AMU

Throughout the following assumptions are being made:
  (1) The electronic state is orbitally nondegenerate
  (2) There are no thermally accessible electronically excited states
  (3) Hindered rotations indicated by low frequency modes are not
      treated as such but are treated as vibrations and this may
      cause some error
  (4) All equations used are the standard statistical mechanics
      equations for an ideal gas
  (5) All vibrations are strictly harmonic

freq.      26.23  E(vib)   ...       0.56
freq.      38.65  E(vib)   ...       0.54
freq.     120.25  E(vib)   ...       0.44
freq.     146.44  E(vib)   ...       0.41
freq.     148.79  E(vib)   ...       0.41
freq.     223.75  E(vib)   ...       0.33
freq.     229.82  E(vib)   ...       0.32
freq.     256.47  E(vib)   ...       0.30
freq.     262.39  E(vib)   ...       0.29
freq.     271.06  E(vib)   ...       0.29
freq.     278.70  E(vib)   ...       0.28
freq.     330.16  E(vib)   ...       0.24
freq.     332.33  E(vib)   ...       0.24
freq.     344.21  E(vib)   ...       0.23
freq.     354.39  E(vib)   ...       0.22
freq.     365.81  E(vib)   ...       0.22
freq.     371.56  E(vib)   ...       0.21
freq.     401.19  E(vib)   ...       0.19
freq.     443.61  E(vib)   ...       0.17
freq.     468.55  E(vib)   ...       0.16
freq.     469.90  E(vib)   ...       0.16
freq.     520.27  E(vib)   ...       0.13
freq.     578.05  E(vib)   ...       0.11
freq.     639.38  E(vib)   ...       0.09
freq.     678.70  E(vib)   ...       0.08
freq.     692.06  E(vib)   ...       0.07
freq.     774.75  E(vib)   ...       0.05
freq.     845.55  E(vib)   ...       0.04
freq.     849.41  E(vib)   ...       0.04
freq.     891.59  E(vib)   ...       0.03
freq.     923.39  E(vib)   ...       0.03
freq.     948.44  E(vib)   ...       0.03
freq.     948.55  E(vib)   ...       0.03
freq.     959.04  E(vib)   ...       0.03
freq.     959.69  E(vib)   ...       0.03
freq.     968.05  E(vib)   ...       0.03
freq.     968.39  E(vib)   ...       0.03
freq.    1023.17  E(vib)   ...       0.02
freq.    1040.51  E(vib)   ...       0.02
freq.    1049.85  E(vib)   ...       0.02
freq.    1050.67  E(vib)   ...       0.02
freq.    1054.06  E(vib)   ...       0.02
freq.    1054.71  E(vib)   ...       0.02
freq.    1126.35  E(vib)   ...       0.01
freq.    1151.16  E(vib)   ...       0.01
freq.    1222.80  E(vib)   ...       0.01
freq.    1236.26  E(vib)   ...       0.01
freq.    1266.05  E(vib)   ...       0.01
freq.    1269.85  E(vib)   ...       0.01
freq.    1277.58  E(vib)   ...       0.01
freq.    1279.68  E(vib)   ...       0.01
freq.    1304.25  E(vib)   ...       0.01
freq.    1356.15  E(vib)   ...       0.01
freq.    1396.08  E(vib)   ...       0.00
freq.    1396.30  E(vib)   ...       0.00
freq.    1401.35  E(vib)   ...       0.00
freq.    1401.65  E(vib)   ...       0.00
freq.    1413.50  E(vib)   ...       0.00
freq.    1413.71  E(vib)   ...       0.00
freq.    1441.71  E(vib)   ...       0.00
freq.    1441.71  E(vib)   ...       0.00
freq.    1442.45  E(vib)   ...       0.00
freq.    1448.15  E(vib)   ...       0.00
freq.    1448.23  E(vib)   ...       0.00
freq.    1449.68  E(vib)   ...       0.00
freq.    1453.95  E(vib)   ...       0.00
freq.    1462.19  E(vib)   ...       0.00
freq.    1472.00  E(vib)   ...       0.00
freq.    1472.16  E(vib)   ...       0.00
freq.    1476.38  E(vib)   ...       0.00
freq.    1478.28  E(vib)   ...       0.00
freq.    1478.65  E(vib)   ...       0.00
freq.    1489.29  E(vib)   ...       0.00
freq.    1636.60  E(vib)   ...       0.00
freq.    1654.19  E(vib)   ...       0.00
freq.    3071.29  E(vib)   ...       0.00
freq.    3071.31  E(vib)   ...       0.00
freq.    3072.82  E(vib)   ...       0.00
freq.    3072.83  E(vib)   ...       0.00
freq.    3076.45  E(vib)   ...       0.00
freq.    3076.51  E(vib)   ...       0.00
freq.    3174.82  E(vib)   ...       0.00
freq.    3174.94  E(vib)   ...       0.00
freq.    3179.27  E(vib)   ...       0.00
freq.    3179.28  E(vib)   ...       0.00
freq.    3180.27  E(vib)   ...       0.00
freq.    3180.29  E(vib)   ...       0.00
freq.    3184.71  E(vib)   ...       0.00
freq.    3184.72  E(vib)   ...       0.00
freq.    3185.25  E(vib)   ...       0.00
freq.    3185.29  E(vib)   ...       0.00
freq.    3189.94  E(vib)   ...       0.00
freq.    3190.05  E(vib)   ...       0.00
freq.    3306.58  E(vib)   ...       0.00
freq.    3323.61  E(vib)   ...       0.00
freq.    3335.77  E(vib)   ...       0.00

------------
INNER ENERGY
------------

The inner energy is: U= E(el) + E(ZPE) + E(vib) + E(rot) + E(trans)
    E(el)   - is the total energy from the electronic structure calculation
              = E(kin-el) + E(nuc-el) + E(el-el) + E(nuc-nuc)
    E(ZPE)  - the the zero temperature vibrational energy from the frequency calculation
    E(vib)  - the the finite temperature correction to E(ZPE) due to population
              of excited vibrational states
    E(rot)  - is the rotational thermal energy
    E(trans)- is the translational thermal energy

Summary of contributions to the inner energy U:
Electronic energy                ...   -540.69432740 Eh
Zero point energy                ...      0.31109953 Eh     195.22 kcal/mol
Thermal vibrational correction   ...      0.01167229 Eh       7.32 kcal/mol
Thermal rotational correction    ...      0.00141627 Eh       0.89 kcal/mol
Thermal translational correction ...      0.00141627 Eh       0.89 kcal/mol
-----------------------------------------------------------------------
Total thermal energy                   -540.36872304 Eh

Summary of corrections to the electronic energy:
(perhaps to be used in another calculation)
Total thermal correction                  0.01450483 Eh       9.10 kcal/mol
Non-thermal (ZPE) correction              0.31109953 Eh     195.22 kcal/mol
-----------------------------------------------------------------------
Total correction                          0.32560436 Eh     204.32 kcal/mol

--------
ENTHALPY
--------

The enthalpy is H = U + kB*T
                kB is Boltzmann's constant
Total free energy                 ...   -540.36872304 Eh
Thermal Enthalpy correction       ...      0.00094421 Eh       0.59 kcal/mol
-----------------------------------------------------------------------
Total Enthalpy                    ...   -540.36777883 Eh

Note: Only C1 symmetry has been detected, increase convergence thresholds
      if your molecule has a higher symmetry. Symmetry factor of 1.0 is
      used for the rotational entropy correction.

Rotational constants in cm-1:     0.055421     0.014781     0.013815

                             ****ORCA TERMINATED NORMALLY****
TOTAL RUN TIME: 0 days 1 hours 34 minutes 9 seconds 231 msec
