                         Program Version 5.0.4 -  RELEASE  -
|  1> # ORCA 5.0.4 - /users/bwb16179/postgrad/2024_03/DFT_Crest_Conformers/Opt/prot/5_prot_aq_5.inp # write input file
|  2> # Basic Mode
|  3> #
|  4> ! Opt Freq wB97X Def2-SVP D4 SlowConv TightSCF Defgrid2 Def2/J RIJCOSX CPCM(Water)
|  5>
|  6>
|  7>
|  8> %maxcore 4500
|  9>
| 10> %geom
| 11> Maxiter 150
| 12> END
| 13>
| 14> * xyzfile 1 1 5_prot_aq_5.xyz
| 15>
| 16>                          ****END OF INPUT****
 Total Charge           Charge          ....    1
 Multiplicity           Mult            ....    1
 Number of Electrons    NEL             ....  100
Dispersion correction           -0.005635684
FINAL SINGLE POINT ENERGY      -540.688406352637
Dispersion correction            ... Starting D4
Dispersion correction           -0.005615579
FINAL SINGLE POINT ENERGY      -540.692408694323
Dispersion correction            ... Starting D4
Dispersion correction           -0.005613584
FINAL SINGLE POINT ENERGY      -540.692546821360
Dispersion correction            ... Starting D4
FINAL SINGLE POINT ENERGY      -540.692593474959
FINAL SINGLE POINT ENERGY      -540.692602498371
FINAL SINGLE POINT ENERGY      -540.692611451805
FINAL SINGLE POINT ENERGY      -540.692608518724
FINAL SINGLE POINT ENERGY      -540.692590174453
Dispersion correction           -0.005609934
FINAL SINGLE POINT ENERGY      -540.692605746767
Dispersion correction            ... Starting D4
Dispersion correction           -0.005609577
FINAL SINGLE POINT ENERGY      -540.692607054531
Dispersion correction            ... Starting D4
                    ***********************HURRAY********************

CARTESIAN COORDINATES (ANGSTROEM)
---------------------------------
  N     -1.088429   -0.224739   -0.169599
  C      0.000059    0.417885    0.251173
  N      1.088504   -0.225387   -0.168746
  H      0.000156    1.326540    0.851556
  C      0.680671   -1.330377   -0.883593
  C     -0.680673   -1.330021   -0.884048
  C     -2.493489    0.194225    0.144970
  C      2.493506    0.193410    0.146331
  C     -2.647015    1.669926   -0.225424
  C     -2.726800   -0.031342    1.639852
  C     -3.455693   -0.655027   -0.679917
  C      3.456047   -0.657810   -0.676090
  C      2.725420   -0.029624    1.641807
  C      2.648003    1.668386   -0.226561
  H      1.374989   -2.029352   -1.340686
  H     -1.375054   -2.028599   -1.341653
  H     -2.422288    1.831479   -1.290689
  H     -1.993010    2.315473    0.379899
  H     -3.685937    1.977112   -0.037324
  H     -3.272977   -0.540266   -1.759165
  H     -4.480014   -0.316608   -0.469584
  H     -3.394363   -1.720593   -0.412680
  H      3.761041    0.241617    1.894489
  H      2.567355   -1.086480    1.905954
  H      2.050818    0.593524    2.249214
  H     -2.568927   -1.088619    1.902426
  H     -3.762658    0.239451    1.892051
  H     -2.052706    0.590865    2.248789
  H      3.393082   -1.723000   -0.407742
  H      4.480408   -0.320298   -0.464491
  H      3.275205   -0.544072   -1.755765
  H      2.423906    1.828182   -1.292219
  H      3.686966    1.975424   -0.038441
  H      1.993890    2.315143    0.377361

 Multiplicity           Mult            ....    1
 Number of Electrons    NEL             ....  100
 Basis Dimension        Dim             ....  287

ORBITAL ENERGIES
----------------

  NO   OCC          E(Eh)            E(eV)
   0   2.0000     -14.508228      -394.7890
   1   2.0000     -14.508204      -394.7883
   2   2.0000     -10.380739      -282.4743
   3   2.0000     -10.345614      -281.5185
   4   2.0000     -10.345600      -281.5181
   5   2.0000     -10.332705      -281.1672
   6   2.0000     -10.332132      -281.1516
   7   2.0000     -10.275053      -279.5984
   8   2.0000     -10.275041      -279.5981
   9   2.0000     -10.274626      -279.5868
  10   2.0000     -10.274620      -279.5866
  11   2.0000     -10.273885      -279.5666
  12   2.0000     -10.273878      -279.5664
  13   2.0000      -1.213095       -33.0100
  14   2.0000      -1.094853       -29.7925
  15   2.0000      -0.980150       -26.6712
  16   2.0000      -0.932989       -25.3879
  17   2.0000      -0.920238       -25.0409
  18   2.0000      -0.833648       -22.6847
  19   2.0000      -0.823891       -22.4192
  20   2.0000      -0.822779       -22.3890
  21   2.0000      -0.821849       -22.3637
  22   2.0000      -0.792051       -21.5528
  23   2.0000      -0.763922       -20.7874
  24   2.0000      -0.726222       -19.7615
  25   2.0000      -0.700355       -19.0576
  26   2.0000      -0.642748       -17.4901
  27   2.0000      -0.627085       -17.0638
  28   2.0000      -0.606836       -16.5128
  29   2.0000      -0.588426       -16.0119
  30   2.0000      -0.585902       -15.9432
  31   2.0000      -0.576885       -15.6978
  32   2.0000      -0.569951       -15.5091
  33   2.0000      -0.556540       -15.1442
  34   2.0000      -0.553203       -15.0534
  35   2.0000      -0.547690       -14.9034
  36   2.0000      -0.515956       -14.0399
  37   2.0000      -0.506643       -13.7865
  38   2.0000      -0.498822       -13.5736
  39   2.0000      -0.498220       -13.5572
  40   2.0000      -0.490372       -13.3437
  41   2.0000      -0.487109       -13.2549
  42   2.0000      -0.479771       -13.0552
  43   2.0000      -0.479644       -13.0518
  44   2.0000      -0.467116       -12.7109
  45   2.0000      -0.454391       -12.3646
  46   2.0000      -0.452244       -12.3062
  47   2.0000      -0.451962       -12.2985
  48   2.0000      -0.413513       -11.2523
  49   2.0000      -0.370992       -10.0952
  50   0.0000       0.058688         1.5970
  51   0.0000       0.097023         2.6401
  52   0.0000       0.129980         3.5369
  53   0.0000       0.144214         3.9243
  54   0.0000       0.159189         4.3318

MULLIKEN ATOMIC CHARGES
-----------------------
   0 N :   -0.179979
   1 C :    0.204078
   2 N :   -0.180003
   3 H :    0.140732
   4 C :    0.063212
   5 C :    0.063196
   6 C :   -0.238285
   7 C :   -0.238284
   8 C :    0.024108
   9 C :    0.043682
  10 C :    0.010854
  11 C :    0.010866
  12 C :    0.043582
  13 C :    0.024217
  14 H :    0.098816
  15 H :    0.098812
  16 H :    0.055926
  17 H :    0.051881
  18 H :    0.059111
  19 H :    0.057548
  20 H :    0.062369
  21 H :    0.059156
  22 H :    0.057575
  23 H :    0.052171
  24 H :    0.049496
  25 H :    0.052162
  26 H :    0.057573
  27 H :    0.049485
  28 H :    0.059154
  29 H :    0.062373
  30 H :    0.057544
  31 H :    0.055916
  32 H :    0.059102
  33 H :    0.051855
Sum of atomic charges:    1.0000000

LOEWDIN ATOMIC CHARGES
----------------------
   0 N :    0.100998
   1 C :    0.120296
   2 N :    0.100990
   3 H :    0.063919
   4 C :    0.014351
   5 C :    0.014335
   6 C :    0.017222
   7 C :    0.017220
   8 C :   -0.045972
   9 C :   -0.044800
  10 C :   -0.047598
  11 C :   -0.047599
  12 C :   -0.044806
  13 C :   -0.045961
  14 H :    0.059512
  15 H :    0.059510
  16 H :    0.037762
  17 H :    0.034954
  18 H :    0.044603
  19 H :    0.037976
  20 H :    0.047209
  21 H :    0.037165
  22 H :    0.043274
  23 H :    0.036695
  24 H :    0.034563
  25 H :    0.036689
  26 H :    0.043271
  27 H :    0.034563
  28 H :    0.037170
  29 H :    0.047214
  30 H :    0.037972
  31 H :    0.037757
  32 H :    0.044595
  33 H :    0.034949

  Mayer bond orders larger than 0.100000
B(  0-N ,  1-C ) :   1.3570 B(  0-N ,  5-C ) :   1.1849 B(  0-N ,  6-C ) :   0.7944
B(  1-C ,  2-N ) :   1.3569 B(  1-C ,  3-H ) :   0.9656 B(  2-N ,  4-C ) :   1.1849
B(  2-N ,  7-C ) :   0.7943 B(  4-C ,  5-C ) :   1.5695 B(  4-C , 14-H ) :   0.9834
B(  5-C , 15-H ) :   0.9834 B(  6-C ,  8-C ) :   1.0429 B(  6-C ,  9-C ) :   1.0373
B(  6-C , 10-C ) :   1.0662 B(  7-C , 11-C ) :   1.0662 B(  7-C , 12-C ) :   1.0374
B(  7-C , 13-C ) :   1.0428 B(  8-C , 16-H ) :   0.9651 B(  8-C , 17-H ) :   0.9610
B(  8-C , 18-H ) :   0.9677 B(  9-C , 25-H ) :   0.9642 B(  9-C , 26-H ) :   0.9701
B(  9-C , 27-H ) :   0.9612 B( 10-C , 19-H ) :   0.9592 B( 10-C , 20-H ) :   0.9626
B( 10-C , 21-H ) :   0.9559 B( 11-C , 28-H ) :   0.9559 B( 11-C , 29-H ) :   0.9626
B( 11-C , 30-H ) :   0.9592 B( 12-C , 22-H ) :   0.9701 B( 12-C , 23-H ) :   0.9643
B( 12-C , 24-H ) :   0.9612 B( 13-C , 31-H ) :   0.9651 B( 13-C , 32-H ) :   0.9677
B( 13-C , 33-H ) :   0.9610

Dispersion correction           -0.005609428
FINAL SINGLE POINT ENERGY      -540.692607660126

DIPOLE MOMENT
-------------
                                X             Y             Z
Electronic contribution:      0.00029      -3.73538      -2.76541
Nuclear contribution   :     -0.00026       3.71906       2.75028
                        -----------------------------------------
Total Dipole Moment    :      0.00004      -0.01632      -0.01513
                        -----------------------------------------
Magnitude (a.u.)       :      0.02225
Magnitude (Debye)      :      0.05656

Dispersion correction in the Hessian             ... Starting D4

VIBRATIONAL FREQUENCIES
-----------------------

Scaling factor for frequencies =  1.000000000  (already applied!)

   0:         0.00 cm**-1
   1:         0.00 cm**-1
   2:         0.00 cm**-1
   3:         0.00 cm**-1
   4:         0.00 cm**-1
   5:         0.00 cm**-1
   6:        33.82 cm**-1
   7:        43.74 cm**-1
   8:        93.41 cm**-1
   9:       146.02 cm**-1
  10:       167.56 cm**-1
  11:       241.90 cm**-1
  12:       245.36 cm**-1
  13:       276.13 cm**-1
  14:       285.83 cm**-1
  15:       288.06 cm**-1
  16:       303.70 cm**-1
  17:       325.24 cm**-1
  18:       326.17 cm**-1
  19:       335.42 cm**-1
  20:       353.08 cm**-1
  21:       362.00 cm**-1
  22:       370.29 cm**-1
  23:       420.68 cm**-1
  24:       440.64 cm**-1
  25:       471.41 cm**-1
  26:       478.98 cm**-1
  27:       522.61 cm**-1
  28:       578.25 cm**-1
  29:       636.14 cm**-1
  30:       683.23 cm**-1
  31:       692.12 cm**-1
  32:       761.92 cm**-1
  33:       847.73 cm**-1
  34:       851.55 cm**-1
  35:       908.57 cm**-1
  36:       915.28 cm**-1
  37:       949.20 cm**-1
  38:       949.63 cm**-1
  39:       957.22 cm**-1
  40:       957.79 cm**-1
  41:       971.59 cm**-1
  42:       972.04 cm**-1
  43:      1024.13 cm**-1
  44:      1039.04 cm**-1
  45:      1052.61 cm**-1
  46:      1053.14 cm**-1
  47:      1056.45 cm**-1
  48:      1057.24 cm**-1
  49:      1136.27 cm**-1
  50:      1156.24 cm**-1
  51:      1221.57 cm**-1
  52:      1234.45 cm**-1
  53:      1273.06 cm**-1
  54:      1273.37 cm**-1
  55:      1279.18 cm**-1
  56:      1280.20 cm**-1
  57:      1309.01 cm**-1
  58:      1363.56 cm**-1
  59:      1396.19 cm**-1
  60:      1396.37 cm**-1
  61:      1398.59 cm**-1
  62:      1402.13 cm**-1
  63:      1413.49 cm**-1
  64:      1413.56 cm**-1
  65:      1443.86 cm**-1
  66:      1443.91 cm**-1
  67:      1445.91 cm**-1
  68:      1446.46 cm**-1
  69:      1448.98 cm**-1
  70:      1451.44 cm**-1
  71:      1453.75 cm**-1
  72:      1460.94 cm**-1
  73:      1470.81 cm**-1
  74:      1470.85 cm**-1
  75:      1472.55 cm**-1
  76:      1479.78 cm**-1
  77:      1480.72 cm**-1
  78:      1491.38 cm**-1
  79:      1636.03 cm**-1
  80:      1640.50 cm**-1
  81:      3068.52 cm**-1
  82:      3068.57 cm**-1
  83:      3073.22 cm**-1
  84:      3073.26 cm**-1
  85:      3076.55 cm**-1
  86:      3076.56 cm**-1
  87:      3172.89 cm**-1
  88:      3172.98 cm**-1
  89:      3178.95 cm**-1
  90:      3179.15 cm**-1
  91:      3179.77 cm**-1
  92:      3179.79 cm**-1
  93:      3183.26 cm**-1
  94:      3183.27 cm**-1
  95:      3185.31 cm**-1
  96:      3185.31 cm**-1
  97:      3189.45 cm**-1
  98:      3189.52 cm**-1
  99:      3310.65 cm**-1
 100:      3324.29 cm**-1
 101:      3340.94 cm**-1

IR SPECTRUM
-----------

 Mode   freq       eps      Int      T**2         TX        TY        TZ
       cm**-1   L/(mol*cm) km/mol    a.u.
----------------------------------------------------------------------------
  6:     33.82   0.000000    0.00  0.000000  (-0.000347  0.000026 -0.000028)
  7:     43.74   0.000004    0.02  0.000025  (-0.000017 -0.004953  0.000818)
  8:     93.41   0.000014    0.07  0.000048  (-0.000015  0.002248 -0.006581)
  9:    146.02   0.000013    0.07  0.000028  ( 0.000005 -0.004505 -0.002751)
 10:    167.56   0.000000    0.00  0.000000  ( 0.000690  0.000008 -0.000001)
 11:    241.90   0.000001    0.01  0.000002  (-0.001338 -0.000005 -0.000006)
 12:    245.36   0.000001    0.00  0.000001  ( 0.000026 -0.000918 -0.000428)
 13:    276.13   0.000038    0.19  0.000043  ( 0.000037 -0.004715 -0.004570)
 14:    285.83   0.000001    0.00  0.000001  (-0.000913  0.000015  0.000024)
 15:    288.06   0.000036    0.18  0.000039  ( 0.006219  0.000032  0.000038)
 16:    303.70   0.000007    0.03  0.000007  ( 0.000005 -0.002340  0.001157)
 17:    325.24   0.000004    0.02  0.000004  ( 0.002037 -0.000039  0.000009)
 18:    326.17   0.000008    0.04  0.000008  ( 0.000041  0.002564 -0.001215)
 19:    335.42   0.000019    0.09  0.000017  (-0.000005 -0.002007 -0.003644)
 20:    353.08   0.000069    0.35  0.000061  ( 0.000009 -0.005430  0.005636)
 21:    362.00   0.000002    0.01  0.000002  ( 0.001465 -0.000021 -0.000009)
 22:    370.29   0.000001    0.00  0.000001  ( 0.000868 -0.000007  0.000004)
 23:    420.68   0.000006    0.03  0.000005  ( 0.002130  0.000008 -0.000024)
 24:    440.64   0.000008    0.04  0.000006  (-0.000018  0.000899 -0.002192)
 25:    471.41   0.000018    0.09  0.000012  ( 0.000007 -0.003397 -0.000463)
 26:    478.98   0.000037    0.19  0.000024  (-0.004886  0.000006  0.000010)
 27:    522.61   0.000016    0.08  0.000009  (-0.003068 -0.000004  0.000000)
 28:    578.25   0.000150    0.76  0.000081  ( 0.000002 -0.007422 -0.005106)
 29:    636.14   0.001861    9.41  0.000913  ( 0.030218 -0.000017  0.000042)
 30:    683.23   0.000030    0.15  0.000014  (-0.003711  0.000076 -0.000129)
 31:    692.12   0.013559   68.52  0.006113  ( 0.000013  0.042269 -0.065777)
 32:    761.92   0.010631   53.72  0.004354  ( 0.000050  0.036008 -0.055296)
 33:    847.73   0.000016    0.08  0.000006  (-0.000044 -0.000274 -0.002384)
 34:    851.55   0.000268    1.36  0.000098  (-0.009913  0.000004  0.000006)
 35:    908.57   0.004911   24.82  0.001687  (-0.000070 -0.020782  0.035426)
 36:    915.28   0.000011    0.05  0.000004  ( 0.001896 -0.000086  0.000134)
 37:    949.20   0.000017    0.09  0.000006  ( 0.002261  0.000497 -0.000599)
 38:    949.63   0.001229    6.21  0.000404  (-0.000102  0.013103 -0.015233)
 39:    957.22   0.000603    3.05  0.000197  ( 0.013994 -0.000773 -0.000514)
 40:    957.79   0.001076    5.44  0.000351  (-0.000698 -0.015503 -0.010473)
 41:    971.59   0.000009    0.05  0.000003  (-0.001625  0.000353 -0.000369)
 42:    972.04   0.000106    0.53  0.000034  ( 0.000158  0.004174 -0.004060)
 43:   1024.13   0.001456    7.36  0.000444  ( 0.021062 -0.000001  0.000010)
 44:   1039.04   0.000019    0.09  0.000006  (-0.000007 -0.002312 -0.000472)
 45:   1052.61   0.000004    0.02  0.000001  (-0.000330 -0.001053 -0.000200)
 46:   1053.14   0.000062    0.31  0.000018  (-0.004292  0.000057  0.000033)
 47:   1056.45   0.000004    0.02  0.000001  ( 0.001032 -0.000098  0.000152)
 48:   1057.24   0.000188    0.95  0.000056  (-0.000025 -0.004005  0.006285)
 49:   1136.27   0.005751   29.06  0.001580  (-0.000036  0.032923  0.022263)
 50:   1156.24   0.015470   78.18  0.004175  (-0.064616  0.000033 -0.000039)
 51:   1221.57   0.002715   13.72  0.000694  (-0.000097 -0.020334 -0.016735)
 52:   1234.45   0.073018  369.00  0.018459  ( 0.135862 -0.000018  0.000017)
 53:   1273.06   0.003987   20.15  0.000977  ( 0.031259 -0.000217 -0.000137)
 54:   1273.37   0.000608    3.07  0.000149  (-0.000623 -0.010622 -0.005973)
 55:   1279.18   0.000253    1.28  0.000062  ( 0.007846  0.000131 -0.000203)
 56:   1280.20   0.006823   34.48  0.001663  (-0.000108  0.023408 -0.033394)
 57:   1309.01   0.000342    1.73  0.000082  (-0.009030  0.000021 -0.000006)
 58:   1363.56   0.005850   29.56  0.001339  ( 0.000006  0.029763  0.021281)
 59:   1396.19   0.000216    1.09  0.000048  ( 0.003281  0.003694 -0.004894)
 60:   1396.37   0.010418   52.65  0.002328  (-0.000441  0.027615 -0.039566)
 61:   1398.59   0.008735   44.14  0.001949  ( 0.000170 -0.036691 -0.024550)
 62:   1402.13   0.003036   15.34  0.000676  ( 0.025992  0.000232  0.000100)
 63:   1413.49   0.000599    3.03  0.000132  (-0.011303 -0.002074 -0.000312)
 64:   1413.56   0.002048   10.35  0.000452  (-0.021229  0.001165  0.000121)
 65:   1443.86   0.000036    0.18  0.000008  (-0.000089  0.002565 -0.001106)
 66:   1443.91   0.000100    0.50  0.000022  ( 0.000029  0.004266 -0.001819)
 67:   1445.91   0.000080    0.40  0.000017  (-0.004143  0.000035  0.000028)
 68:   1446.46   0.000081    0.41  0.000017  (-0.000039 -0.004143  0.000456)
 69:   1448.98   0.000487    2.46  0.000105  ( 0.010237  0.000000 -0.000037)
 70:   1451.44   0.000739    3.74  0.000159  (-0.000008 -0.009318 -0.008490)
 71:   1453.75   0.000023    0.12  0.000005  (-0.002202  0.000217  0.000156)
 72:   1460.94   0.006168   31.17  0.001318  (-0.000009 -0.031521 -0.017999)
 73:   1470.81   0.000901    4.55  0.000191  ( 0.000357 -0.006705  0.012084)
 74:   1470.85   0.001969    9.95  0.000418  (-0.000423 -0.009977  0.017832)
 75:   1472.55   0.001018    5.15  0.000216  (-0.014687  0.000124 -0.000303)
 76:   1479.78   0.002016   10.19  0.000425  (-0.020618 -0.000187 -0.000300)
 77:   1480.72   0.000978    4.94  0.000206  (-0.000530  0.005169  0.013381)
 78:   1491.38   0.000007    0.04  0.000002  ( 0.000018 -0.001151  0.000458)
 79:   1636.03   0.028896  146.03  0.005512  ( 0.074241 -0.000048 -0.000004)
 80:   1640.50   0.001987   10.04  0.000378  (-0.000156 -0.016726 -0.009905)
 81:   3068.52   0.004984   25.19  0.000507  (-0.000067  0.005008 -0.021949)
 82:   3068.57   0.000906    4.58  0.000092  (-0.000196 -0.002117  0.009360)
 83:   3073.22   0.005658   28.60  0.000575  (-0.001210  0.023460  0.004767)
 84:   3073.26   0.000577    2.92  0.000059  ( 0.005600  0.005109  0.001062)
 85:   3076.55   0.000573    2.90  0.000058  ( 0.003144  0.001405 -0.006801)
 86:   3076.56   0.000444    2.25  0.000045  (-0.005272  0.000878 -0.004061)
 87:   3172.89   0.003549   17.93  0.000349  (-0.001966 -0.018440 -0.002270)
 88:   3172.98   0.001344    6.79  0.000132  (-0.011008  0.003295  0.000384)
 89:   3178.95   0.005012   25.33  0.000492  ( 0.000415  0.012903  0.018038)
 90:   3179.15   0.001237    6.25  0.000121  ( 0.010992 -0.000625 -0.000500)
 91:   3179.77   0.003693   18.66  0.000362  (-0.000046 -0.010403  0.015943)
 92:   3179.79   0.001383    6.99  0.000136  (-0.000146 -0.006514  0.009657)
 93:   3183.26   0.001600    8.08  0.000157  ( 0.010352 -0.004574  0.005362)
 94:   3183.27   0.001954    9.87  0.000192  (-0.005790 -0.008115  0.009599)
 95:   3185.31   0.000600    3.03  0.000059  (-0.005576 -0.005052  0.001469)
 96:   3185.31   0.001075    5.43  0.000105  ( 0.002977 -0.009411  0.002814)
 97:   3189.45   0.008163   41.25  0.000799  (-0.028256  0.000351  0.000350)
 98:   3189.52   0.002131   10.77  0.000208  ( 0.000993  0.010328  0.010041)
 99:   3310.65   0.009640   48.71  0.000909  ( 0.000005  0.025227  0.016500)
100:   3324.29   0.006631   33.51  0.000622  (-0.024949 -0.000000 -0.000015)
101:   3340.94   0.003416   17.26  0.000319  ( 0.000026 -0.014777 -0.010038)

--------------------------
THERMOCHEMISTRY AT 298.15K
--------------------------

Temperature         ... 298.15 K
Pressure            ... 1.00 atm
Total Mass          ... 181.30 AMU

Throughout the following assumptions are being made:
  (1) The electronic state is orbitally nondegenerate
  (2) There are no thermally accessible electronically excited states
  (3) Hindered rotations indicated by low frequency modes are not
      treated as such but are treated as vibrations and this may
      cause some error
  (4) All equations used are the standard statistical mechanics
      equations for an ideal gas
  (5) All vibrations are strictly harmonic

freq.      33.82  E(vib)   ...       0.55
freq.      43.74  E(vib)   ...       0.53
freq.      93.41  E(vib)   ...       0.47
freq.     146.02  E(vib)   ...       0.41
freq.     167.56  E(vib)   ...       0.38
freq.     241.90  E(vib)   ...       0.31
freq.     245.36  E(vib)   ...       0.31
freq.     276.13  E(vib)   ...       0.28
freq.     285.83  E(vib)   ...       0.27
freq.     288.06  E(vib)   ...       0.27
freq.     303.70  E(vib)   ...       0.26
freq.     325.24  E(vib)   ...       0.24
freq.     326.17  E(vib)   ...       0.24
freq.     335.42  E(vib)   ...       0.24
freq.     353.08  E(vib)   ...       0.22
freq.     362.00  E(vib)   ...       0.22
freq.     370.29  E(vib)   ...       0.21
freq.     420.68  E(vib)   ...       0.18
freq.     440.64  E(vib)   ...       0.17
freq.     471.41  E(vib)   ...       0.15
freq.     478.98  E(vib)   ...       0.15
freq.     522.61  E(vib)   ...       0.13
freq.     578.25  E(vib)   ...       0.11
freq.     636.14  E(vib)   ...       0.09
freq.     683.23  E(vib)   ...       0.08
freq.     692.12  E(vib)   ...       0.07
freq.     761.92  E(vib)   ...       0.06
freq.     847.73  E(vib)   ...       0.04
freq.     851.55  E(vib)   ...       0.04
freq.     908.57  E(vib)   ...       0.03
freq.     915.28  E(vib)   ...       0.03
freq.     949.20  E(vib)   ...       0.03
freq.     949.63  E(vib)   ...       0.03
freq.     957.22  E(vib)   ...       0.03
freq.     957.79  E(vib)   ...       0.03
freq.     971.59  E(vib)   ...       0.03
freq.     972.04  E(vib)   ...       0.03
freq.    1024.13  E(vib)   ...       0.02
freq.    1039.04  E(vib)   ...       0.02
freq.    1052.61  E(vib)   ...       0.02
freq.    1053.14  E(vib)   ...       0.02
freq.    1056.45  E(vib)   ...       0.02
freq.    1057.24  E(vib)   ...       0.02
freq.    1136.27  E(vib)   ...       0.01
freq.    1156.24  E(vib)   ...       0.01
freq.    1221.57  E(vib)   ...       0.01
freq.    1234.45  E(vib)   ...       0.01
freq.    1273.06  E(vib)   ...       0.01
freq.    1273.37  E(vib)   ...       0.01
freq.    1279.18  E(vib)   ...       0.01
freq.    1280.20  E(vib)   ...       0.01
freq.    1309.01  E(vib)   ...       0.01
freq.    1363.56  E(vib)   ...       0.01
freq.    1396.19  E(vib)   ...       0.00
freq.    1396.37  E(vib)   ...       0.00
freq.    1398.59  E(vib)   ...       0.00
freq.    1402.13  E(vib)   ...       0.00
freq.    1413.49  E(vib)   ...       0.00
freq.    1413.56  E(vib)   ...       0.00
freq.    1443.86  E(vib)   ...       0.00
freq.    1443.91  E(vib)   ...       0.00
freq.    1445.91  E(vib)   ...       0.00
freq.    1446.46  E(vib)   ...       0.00
freq.    1448.98  E(vib)   ...       0.00
freq.    1451.44  E(vib)   ...       0.00
freq.    1453.75  E(vib)   ...       0.00
freq.    1460.94  E(vib)   ...       0.00
freq.    1470.81  E(vib)   ...       0.00
freq.    1470.85  E(vib)   ...       0.00
freq.    1472.55  E(vib)   ...       0.00
freq.    1479.78  E(vib)   ...       0.00
freq.    1480.72  E(vib)   ...       0.00
freq.    1491.38  E(vib)   ...       0.00
freq.    1636.03  E(vib)   ...       0.00
freq.    1640.50  E(vib)   ...       0.00
freq.    3068.52  E(vib)   ...       0.00
freq.    3068.57  E(vib)   ...       0.00
freq.    3073.22  E(vib)   ...       0.00
freq.    3073.26  E(vib)   ...       0.00
freq.    3076.55  E(vib)   ...       0.00
freq.    3076.56  E(vib)   ...       0.00
freq.    3172.89  E(vib)   ...       0.00
freq.    3172.98  E(vib)   ...       0.00
freq.    3178.95  E(vib)   ...       0.00
freq.    3179.15  E(vib)   ...       0.00
freq.    3179.77  E(vib)   ...       0.00
freq.    3179.79  E(vib)   ...       0.00
freq.    3183.26  E(vib)   ...       0.00
freq.    3183.27  E(vib)   ...       0.00
freq.    3185.31  E(vib)   ...       0.00
freq.    3185.31  E(vib)   ...       0.00
freq.    3189.45  E(vib)   ...       0.00
freq.    3189.52  E(vib)   ...       0.00
freq.    3310.65  E(vib)   ...       0.00
freq.    3324.29  E(vib)   ...       0.00
freq.    3340.94  E(vib)   ...       0.00

------------
INNER ENERGY
------------

The inner energy is: U= E(el) + E(ZPE) + E(vib) + E(rot) + E(trans)
    E(el)   - is the total energy from the electronic structure calculation
              = E(kin-el) + E(nuc-el) + E(el-el) + E(nuc-nuc)
    E(ZPE)  - the the zero temperature vibrational energy from the frequency calculation
    E(vib)  - the the finite temperature correction to E(ZPE) due to population
              of excited vibrational states
    E(rot)  - is the rotational thermal energy
    E(trans)- is the translational thermal energy

Summary of contributions to the inner energy U:
Electronic energy                ...   -540.69260766 Eh
Zero point energy                ...      0.31148077 Eh     195.46 kcal/mol
Thermal vibrational correction   ...      0.01150277 Eh       7.22 kcal/mol
Thermal rotational correction    ...      0.00141627 Eh       0.89 kcal/mol
Thermal translational correction ...      0.00141627 Eh       0.89 kcal/mol
-----------------------------------------------------------------------
Total thermal energy                   -540.36679159 Eh

Summary of corrections to the electronic energy:
(perhaps to be used in another calculation)
Total thermal correction                  0.01433531 Eh       9.00 kcal/mol
Non-thermal (ZPE) correction              0.31148077 Eh     195.46 kcal/mol
-----------------------------------------------------------------------
Total correction                          0.32581607 Eh     204.45 kcal/mol

--------
ENTHALPY
--------

The enthalpy is H = U + kB*T
                kB is Boltzmann's constant
Total free energy                 ...   -540.36679159 Eh
Thermal Enthalpy correction       ...      0.00094421 Eh       0.59 kcal/mol
-----------------------------------------------------------------------
Total Enthalpy                    ...   -540.36584738 Eh

Note: Only C1 symmetry has been detected, increase convergence thresholds
      if your molecule has a higher symmetry. Symmetry factor of 1.0 is
      used for the rotational entropy correction.

Rotational constants in cm-1:     0.054871     0.014968     0.013941

                             ****ORCA TERMINATED NORMALLY****
TOTAL RUN TIME: 0 days 2 hours 29 minutes 41 seconds 573 msec
