                         Program Version 5.0.4 -  RELEASE  -
|  1> # ORCA 5.0.4 - /users/bwb16179/postgrad/2024_03/DFT_Crest_Conformers/Opt/prot/5_prot_aq_9.inp # write input file
|  2> # Basic Mode
|  3> #
|  4> ! Opt Freq wB97X Def2-SVP D4 SlowConv TightSCF Defgrid2 Def2/J RIJCOSX CPCM(Water)
|  5>
|  6>
|  7>
|  8> %maxcore 4500
|  9>
| 10> %geom
| 11> Maxiter 150
| 12> END
| 13>
| 14> * xyzfile 1 1 5_prot_aq_9.xyz
| 15>
| 16>                          ****END OF INPUT****
 Total Charge           Charge          ....    1
 Multiplicity           Mult            ....    1
 Number of Electrons    NEL             ....  100
Dispersion correction           -0.005625682
FINAL SINGLE POINT ENERGY      -540.687805665295
Dispersion correction            ... Starting D4
Dispersion correction           -0.005607829
FINAL SINGLE POINT ENERGY      -540.691933694981
Dispersion correction            ... Starting D4
Dispersion correction           -0.005605307
FINAL SINGLE POINT ENERGY      -540.692233196853
Dispersion correction            ... Starting D4
FINAL SINGLE POINT ENERGY      -540.692396669150
FINAL SINGLE POINT ENERGY      -540.692432901484
FINAL SINGLE POINT ENERGY      -540.692515620308
FINAL SINGLE POINT ENERGY      -540.692650630743
FINAL SINGLE POINT ENERGY      -540.692732806597
FINAL SINGLE POINT ENERGY      -540.686270299796
FINAL SINGLE POINT ENERGY      -540.693057157921
FINAL SINGLE POINT ENERGY      -540.693377634174
FINAL SINGLE POINT ENERGY      -540.693710049648
FINAL SINGLE POINT ENERGY      -540.693976325962
FINAL SINGLE POINT ENERGY      -540.694126497324
FINAL SINGLE POINT ENERGY      -540.694239133185
FINAL SINGLE POINT ENERGY      -540.694294666196
Dispersion correction           -0.005591281
FINAL SINGLE POINT ENERGY      -540.694329662843
Dispersion correction            ... Starting D4
Dispersion correction           -0.005590787
FINAL SINGLE POINT ENERGY      -540.694340114713
Dispersion correction            ... Starting D4
                    ***********************HURRAY********************

CARTESIAN COORDINATES (ANGSTROEM)
---------------------------------
  N     -1.081166   -0.164602    0.203503
  C     -0.010705    0.456755   -0.289779
  N      1.092583   -0.153135    0.140573
  H     -0.033925    1.327098   -0.939771
  C      0.713557   -1.208044    0.943448
  C     -0.644907   -1.213202    0.985630
  C     -2.514492    0.220762    0.009024
  C      2.508778    0.211945   -0.176611
  C     -3.025729    0.786649    1.334795
  C     -3.289603   -1.033654   -0.396237
  C     -2.606373    1.271030   -1.093794
  C      3.148996   -0.981637   -0.886159
  C      3.218474    0.523568    1.141909
  C      2.521112    1.437843   -1.084081
  H      1.433084   -1.870888    1.419115
  H     -1.327495   -1.876659    1.511597
  H     -2.959309    0.040041    2.140837
  H     -4.080118    1.079194    1.223656
  H     -2.444427    1.675063    1.626050
  H     -2.085585    2.201623   -0.821797
  H     -3.666343    1.516203   -1.248661
  H     -2.201571    0.892495   -2.045097
  H      2.722808    1.357459    1.661830
  H      4.258474    0.811668    0.930264
  H      3.239138   -0.351306    1.809082
  H     -3.274531   -1.798351    0.394246
  H     -2.875102   -1.466162   -1.319590
  H     -4.339240   -0.761898   -0.578653
  H      3.158026   -1.875972   -0.244990
  H      4.190234   -0.734947   -1.139926
  H      2.608193   -1.217334   -1.815468
  H      2.011865    1.243508   -2.040453
  H      3.567436    1.690166   -1.305945
  H      2.059520    2.310491   -0.596952

 Multiplicity           Mult            ....    1
 Number of Electrons    NEL             ....  100
 Basis Dimension        Dim             ....  287

ORBITAL ENERGIES
----------------

  NO   OCC          E(Eh)            E(eV)
   0   2.0000     -14.507713      -394.7749
   1   2.0000     -14.507570      -394.7710
   2   2.0000     -10.383239      -282.5423
   3   2.0000     -10.345555      -281.5169
   4   2.0000     -10.345494      -281.5152
   5   2.0000     -10.332989      -281.1749
   6   2.0000     -10.332396      -281.1588
   7   2.0000     -10.276204      -279.6297
   8   2.0000     -10.276109      -279.6271
   9   2.0000     -10.274046      -279.5710
  10   2.0000     -10.273776      -279.5637
  11   2.0000     -10.273759      -279.5632
  12   2.0000     -10.273534      -279.5571
  13   2.0000      -1.213236       -33.0138
  14   2.0000      -1.095210       -29.8022
  15   2.0000      -0.980134       -26.6708
  16   2.0000      -0.932565       -25.3764
  17   2.0000      -0.921370       -25.0717
  18   2.0000      -0.832725       -22.6596
  19   2.0000      -0.825336       -22.4585
  20   2.0000      -0.823336       -22.4041
  21   2.0000      -0.822636       -22.3851
  22   2.0000      -0.792005       -21.5515
  23   2.0000      -0.764622       -20.8064
  24   2.0000      -0.724548       -19.7160
  25   2.0000      -0.702373       -19.1125
  26   2.0000      -0.644047       -17.5254
  27   2.0000      -0.627724       -17.0812
  28   2.0000      -0.605371       -16.4730
  29   2.0000      -0.587206       -15.9787
  30   2.0000      -0.583188       -15.8693
  31   2.0000      -0.577259       -15.7080
  32   2.0000      -0.575998       -15.6737
  33   2.0000      -0.555286       -15.1101
  34   2.0000      -0.553920       -15.0729
  35   2.0000      -0.545895       -14.8546
  36   2.0000      -0.518596       -14.1117
  37   2.0000      -0.502021       -13.6607
  38   2.0000      -0.499348       -13.5880
  39   2.0000      -0.497186       -13.5291
  40   2.0000      -0.495902       -13.4942
  41   2.0000      -0.487123       -13.2553
  42   2.0000      -0.480051       -13.0628
  43   2.0000      -0.479728       -13.0541
  44   2.0000      -0.467238       -12.7142
  45   2.0000      -0.453864       -12.3503
  46   2.0000      -0.453166       -12.3313
  47   2.0000      -0.451103       -12.2751
  48   2.0000      -0.409938       -11.1550
  49   2.0000      -0.374906       -10.2017
  50   0.0000       0.063061         1.7160
  51   0.0000       0.093838         2.5535
  52   0.0000       0.131155         3.5689
  53   0.0000       0.143436         3.9031
  54   0.0000       0.164299         4.4708

MULLIKEN ATOMIC CHARGES
-----------------------
   0 N :   -0.179528
   1 C :    0.216463
   2 N :   -0.178046
   3 H :    0.127848
   4 C :    0.057683
   5 C :    0.059639
   6 C :   -0.238758
   7 C :   -0.239996
   8 C :    0.047071
   9 C :    0.025371
  10 C :    0.002204
  11 C :    0.037639
  12 C :    0.036631
  13 C :    0.001841
  14 H :    0.106240
  15 H :    0.103873
  16 H :    0.049407
  17 H :    0.057498
  18 H :    0.050550
  19 H :    0.060457
  20 H :    0.064167
  21 H :    0.059510
  22 H :    0.052684
  23 H :    0.058143
  24 H :    0.050179
  25 H :    0.052056
  26 H :    0.054597
  27 H :    0.059044
  28 H :    0.049995
  29 H :    0.058182
  30 H :    0.052262
  31 H :    0.060210
  32 H :    0.064478
  33 H :    0.060404
Sum of atomic charges:    1.0000000

LOEWDIN ATOMIC CHARGES
----------------------
   0 N :    0.097327
   1 C :    0.119713
   2 N :    0.098067
   3 H :    0.063188
   4 C :    0.017391
   5 C :    0.017935
   6 C :    0.017268
   7 C :    0.017003
   8 C :   -0.044496
   9 C :   -0.045319
  10 C :   -0.048829
  11 C :   -0.044831
  12 C :   -0.044759
  13 C :   -0.049035
  14 H :    0.059724
  15 H :    0.059509
  16 H :    0.034871
  17 H :    0.043102
  18 H :    0.036191
  19 H :    0.037285
  20 H :    0.048351
  21 H :    0.038400
  22 H :    0.036941
  23 H :    0.043766
  24 H :    0.034773
  25 H :    0.034797
  26 H :    0.037504
  27 H :    0.044413
  28 H :    0.034759
  29 H :    0.043661
  30 H :    0.036811
  31 H :    0.037835
  32 H :    0.048602
  33 H :    0.038083

  Mayer bond orders larger than 0.100000
B(  0-N ,  1-C ) :   1.3546 B(  0-N ,  5-C ) :   1.1674 B(  0-N ,  6-C ) :   0.8097
B(  1-C ,  2-N ) :   1.3573 B(  1-C ,  3-H ) :   0.9592 B(  2-N ,  4-C ) :   1.1670
B(  2-N ,  7-C ) :   0.8104 B(  4-C ,  5-C ) :   1.6182 B(  4-C , 14-H ) :   0.9823
B(  5-C , 15-H ) :   0.9834 B(  6-C ,  8-C ) :   1.0359 B(  6-C ,  9-C ) :   1.0416
B(  6-C , 10-C ) :   1.0631 B(  7-C , 11-C ) :   1.0380 B(  7-C , 12-C ) :   1.0387
B(  7-C , 13-C ) :   1.0650 B(  8-C , 16-H ) :   0.9610 B(  8-C , 17-H ) :   0.9704
B(  8-C , 18-H ) :   0.9640 B(  9-C , 25-H ) :   0.9614 B(  9-C , 26-H ) :   0.9652
B(  9-C , 27-H ) :   0.9679 B( 10-C , 19-H ) :   0.9556 B( 10-C , 20-H ) :   0.9616
B( 10-C , 21-H ) :   0.9594 B( 11-C , 28-H ) :   0.9611 B( 11-C , 29-H ) :   0.9694
B( 11-C , 30-H ) :   0.9647 B( 12-C , 22-H ) :   0.9648 B( 12-C , 23-H ) :   0.9692
B( 12-C , 24-H ) :   0.9612 B( 13-C , 31-H ) :   0.9565 B( 13-C , 32-H ) :   0.9613
B( 13-C , 33-H ) :   0.9568

Dispersion correction           -0.005590561
FINAL SINGLE POINT ENERGY      -540.694342461179

DIPOLE MOMENT
-------------
                                X             Y             Z
Electronic contribution:      0.07461      -3.30619       2.27823
Nuclear contribution   :     -0.07448       3.33871      -2.30356
                        -----------------------------------------
Total Dipole Moment    :      0.00013       0.03252      -0.02533
                        -----------------------------------------
Magnitude (a.u.)       :      0.04122
Magnitude (Debye)      :      0.10477

Dispersion correction in the Hessian             ... Starting D4

VIBRATIONAL FREQUENCIES
-----------------------

Scaling factor for frequencies =  1.000000000  (already applied!)

   0:         0.00 cm**-1
   1:         0.00 cm**-1
   2:         0.00 cm**-1
   3:         0.00 cm**-1
   4:         0.00 cm**-1
   5:         0.00 cm**-1
   6:        36.15 cm**-1
   7:        45.72 cm**-1
   8:       118.35 cm**-1
   9:       144.03 cm**-1
  10:       158.00 cm**-1
  11:       238.39 cm**-1
  12:       258.36 cm**-1
  13:       270.66 cm**-1
  14:       276.70 cm**-1
  15:       291.57 cm**-1
  16:       299.31 cm**-1
  17:       332.77 cm**-1
  18:       342.97 cm**-1
  19:       347.49 cm**-1
  20:       356.99 cm**-1
  21:       363.39 cm**-1
  22:       370.58 cm**-1
  23:       406.76 cm**-1
  24:       449.04 cm**-1
  25:       470.62 cm**-1
  26:       473.57 cm**-1
  27:       521.91 cm**-1
  28:       576.20 cm**-1
  29:       639.35 cm**-1
  30:       682.06 cm**-1
  31:       689.69 cm**-1
  32:       762.66 cm**-1
  33:       847.26 cm**-1
  34:       851.39 cm**-1
  35:       897.85 cm**-1
  36:       913.91 cm**-1
  37:       949.70 cm**-1
  38:       951.11 cm**-1
  39:       956.98 cm**-1
  40:       959.50 cm**-1
  41:       973.88 cm**-1
  42:       974.95 cm**-1
  43:      1022.20 cm**-1
  44:      1039.86 cm**-1
  45:      1052.84 cm**-1
  46:      1054.54 cm**-1
  47:      1055.31 cm**-1
  48:      1056.41 cm**-1
  49:      1116.41 cm**-1
  50:      1149.49 cm**-1
  51:      1222.83 cm**-1
  52:      1238.66 cm**-1
  53:      1266.69 cm**-1
  54:      1270.49 cm**-1
  55:      1279.59 cm**-1
  56:      1281.56 cm**-1
  57:      1304.06 cm**-1
  58:      1358.22 cm**-1
  59:      1395.97 cm**-1
  60:      1397.92 cm**-1
  61:      1400.48 cm**-1
  62:      1401.66 cm**-1
  63:      1413.71 cm**-1
  64:      1413.91 cm**-1
  65:      1443.21 cm**-1
  66:      1445.41 cm**-1
  67:      1446.48 cm**-1
  68:      1449.12 cm**-1
  69:      1451.12 cm**-1
  70:      1454.14 cm**-1
  71:      1456.95 cm**-1
  72:      1463.09 cm**-1
  73:      1471.60 cm**-1
  74:      1472.68 cm**-1
  75:      1476.86 cm**-1
  76:      1481.21 cm**-1
  77:      1482.37 cm**-1
  78:      1490.86 cm**-1
  79:      1637.27 cm**-1
  80:      1651.70 cm**-1
  81:      3069.50 cm**-1
  82:      3071.49 cm**-1
  83:      3071.89 cm**-1
  84:      3072.60 cm**-1
  85:      3075.69 cm**-1
  86:      3076.29 cm**-1
  87:      3174.79 cm**-1
  88:      3175.25 cm**-1
  89:      3176.72 cm**-1
  90:      3177.56 cm**-1
  91:      3179.18 cm**-1
  92:      3180.20 cm**-1
  93:      3183.97 cm**-1
  94:      3184.63 cm**-1
  95:      3185.33 cm**-1
  96:      3185.49 cm**-1
  97:      3189.87 cm**-1
  98:      3189.99 cm**-1
  99:      3306.17 cm**-1
 100:      3323.44 cm**-1
 101:      3338.63 cm**-1

IR SPECTRUM
-----------

 Mode   freq       eps      Int      T**2         TX        TY        TZ
       cm**-1   L/(mol*cm) km/mol    a.u.
----------------------------------------------------------------------------
  6:     36.15   0.000001    0.00  0.000005  (-0.000219 -0.002107 -0.000674)
  7:     45.72   0.000000    0.00  0.000002  ( 0.000934 -0.000555  0.001056)
  8:    118.35   0.000045    0.23  0.000118  ( 0.000753  0.007604  0.007705)
  9:    144.03   0.000018    0.09  0.000039  ( 0.000532 -0.005187  0.003463)
 10:    158.00   0.000001    0.00  0.000002  (-0.001045  0.000805  0.000127)
 11:    238.39   0.000008    0.04  0.000010  (-0.001758  0.000620 -0.002596)
 12:    258.36   0.000003    0.02  0.000004  (-0.000340 -0.000788  0.001711)
 13:    270.66   0.000003    0.01  0.000003  ( 0.000301  0.001132 -0.001277)
 14:    276.70   0.000002    0.01  0.000003  ( 0.000048  0.000318 -0.001609)
 15:    291.57   0.000018    0.09  0.000019  ( 0.001884 -0.003341  0.002036)
 16:    299.31   0.000023    0.12  0.000024  (-0.001967 -0.003648  0.002648)
 17:    332.77   0.000025    0.13  0.000023  (-0.002221 -0.003476 -0.002545)
 18:    342.97   0.000077    0.39  0.000070  ( 0.001406  0.003943  0.007271)
 19:    347.49   0.000007    0.03  0.000006  ( 0.000065  0.000722  0.002361)
 20:    356.99   0.000017    0.09  0.000015  ( 0.000822 -0.002378  0.002984)
 21:    363.39   0.000001    0.00  0.000001  ( 0.000516 -0.000756 -0.000094)
 22:    370.58   0.000004    0.02  0.000003  ( 0.001351 -0.001233 -0.000247)
 23:    406.76   0.000009    0.05  0.000007  (-0.002520  0.000071  0.000958)
 24:    449.04   0.000016    0.08  0.000011  ( 0.001767  0.001514  0.002432)
 25:    470.62   0.000006    0.03  0.000004  ( 0.001950 -0.000397 -0.000189)
 26:    473.57   0.000012    0.06  0.000008  (-0.000177 -0.002562  0.000995)
 27:    521.91   0.000079    0.40  0.000047  ( 0.006784 -0.000209 -0.000930)
 28:    576.20   0.000162    0.82  0.000088  ( 0.000844 -0.007352  0.005761)
 29:    639.35   0.001403    7.09  0.000685  ( 0.026111  0.001229  0.001310)
 30:    682.06   0.015177   76.70  0.006944  ( 0.004947  0.049267  0.067023)
 31:    689.69   0.000020    0.10  0.000009  (-0.001991  0.001756  0.001353)
 32:    762.66   0.007704   38.93  0.003152  (-0.000711 -0.032257 -0.045950)
 33:    847.26   0.000020    0.10  0.000007  ( 0.000899  0.001846 -0.001733)
 34:    851.39   0.000193    0.98  0.000071  (-0.008402 -0.000249 -0.000504)
 35:    897.85   0.005528   27.94  0.001921  ( 0.001073 -0.026264 -0.035077)
 36:    913.91   0.000007    0.03  0.000002  (-0.000546 -0.001408 -0.000228)
 37:    949.70   0.000698    3.53  0.000229  ( 0.003585  0.007805  0.012468)
 38:    951.11   0.000539    2.72  0.000177  ( 0.000106  0.007759  0.010796)
 39:    956.98   0.000901    4.55  0.000294  (-0.000581  0.014700 -0.008789)
 40:    959.50   0.000630    3.18  0.000205  (-0.000887 -0.011495  0.008479)
 41:    973.88   0.000007    0.04  0.000002  ( 0.000009 -0.001158 -0.000996)
 42:    974.95   0.000042    0.21  0.000014  ( 0.001332  0.002851  0.001901)
 43:   1022.20   0.001472    7.44  0.000449  (-0.021184  0.000706  0.000490)
 44:   1039.86   0.000227    1.15  0.000068  ( 0.000388  0.006249 -0.005377)
 45:   1052.84   0.000048    0.24  0.000014  (-0.001524  0.002808 -0.002033)
 46:   1054.54   0.000096    0.48  0.000028  (-0.005319  0.000012 -0.000308)
 47:   1055.31   0.000022    0.11  0.000006  (-0.000863 -0.001601 -0.001750)
 48:   1056.41   0.000120    0.61  0.000035  (-0.000500  0.004520  0.003847)
 49:   1116.41   0.004301   21.74  0.001202  (-0.005854  0.027555 -0.020219)
 50:   1149.49   0.016807   84.93  0.004563  ( 0.067405  0.002060 -0.003863)
 51:   1222.83   0.001452    7.34  0.000370  ( 0.004536 -0.016277  0.009215)
 52:   1238.66   0.080924  408.96  0.020388  (-0.142610  0.000875  0.007033)
 53:   1266.69   0.000366    1.85  0.000090  ( 0.009366  0.000555 -0.001504)
 54:   1270.49   0.000751    3.79  0.000184  ( 0.000600  0.011010 -0.007925)
 55:   1279.59   0.000168    0.85  0.000041  ( 0.006148 -0.001147  0.001350)
 56:   1281.56   0.006851   34.62  0.001668  (-0.006983 -0.023769 -0.032474)
 57:   1304.06   0.000061    0.31  0.000015  ( 0.003719 -0.000732 -0.000543)
 58:   1358.22   0.004273   21.59  0.000982  (-0.000730  0.025528 -0.018153)
 59:   1395.97   0.004846   24.49  0.001083  ( 0.005099  0.022575  0.023404)
 60:   1397.92   0.005709   28.85  0.001274  ( 0.000607  0.023059  0.027246)
 61:   1400.48   0.001432    7.24  0.000319  (-0.008683  0.010124 -0.011886)
 62:   1401.66   0.012107   61.18  0.002695  (-0.003724 -0.038372  0.034772)
 63:   1413.71   0.002651   13.40  0.000585  (-0.024109  0.001507 -0.001266)
 64:   1413.91   0.000453    2.29  0.000100  ( 0.004692 -0.007502  0.004661)
 65:   1443.21   0.000132    0.67  0.000029  (-0.005005 -0.001786  0.000568)
 66:   1445.41   0.000169    0.85  0.000036  (-0.003037  0.003324  0.004024)
 67:   1446.48   0.000234    1.18  0.000050  (-0.007007  0.000932  0.000668)
 68:   1449.12   0.000003    0.01  0.000001  (-0.000718 -0.000194 -0.000254)
 69:   1451.12   0.000030    0.15  0.000006  (-0.000002  0.001969  0.001576)
 70:   1454.14   0.000033    0.16  0.000007  (-0.001601 -0.000535  0.002038)
 71:   1456.95   0.000696    3.52  0.000149  (-0.012093  0.000060  0.001693)
 72:   1463.09   0.004168   21.07  0.000889  (-0.000892 -0.024959  0.016290)
 73:   1471.60   0.002627   13.28  0.000557  ( 0.003821  0.014432  0.018283)
 74:   1472.68   0.000841    4.25  0.000178  (-0.007664 -0.000655 -0.010914)
 75:   1476.86   0.000267    1.35  0.000056  ( 0.000746 -0.003550 -0.006576)
 76:   1481.21   0.000643    3.25  0.000135  (-0.002704 -0.010606  0.003955)
 77:   1482.37   0.002110   10.66  0.000444  ( 0.020314 -0.004773 -0.002939)
 78:   1490.86   0.000076    0.38  0.000016  (-0.002332 -0.002598  0.001909)
 79:   1637.27   0.036619  185.06  0.006980  (-0.083456  0.000153  0.003829)
 80:   1651.70   0.002762   13.96  0.000522  (-0.003832  0.017768 -0.013834)
 81:   3069.50   0.003108   15.71  0.000316  (-0.003974  0.004631  0.016696)
 82:   3071.49   0.003102   15.67  0.000315  ( 0.007296 -0.016022  0.002275)
 83:   3071.89   0.003322   16.79  0.000337  (-0.004022 -0.004325 -0.017394)
 84:   3072.60   0.003031   15.32  0.000308  (-0.006189 -0.015924  0.003988)
 85:   3075.69   0.000169    0.85  0.000017  ( 0.004012  0.000419  0.000937)
 86:   3076.29   0.000567    2.87  0.000058  ( 0.004051  0.005103  0.003884)
 87:   3174.79   0.001808    9.14  0.000178  (-0.003295 -0.011408  0.006058)
 88:   3175.25   0.001697    8.57  0.000167  (-0.000044 -0.009385 -0.008870)
 89:   3176.72   0.002930   14.81  0.000288  (-0.002636 -0.014861 -0.007751)
 90:   3177.56   0.002489   12.58  0.000244  (-0.002750 -0.000671 -0.015375)
 91:   3179.18   0.003719   18.79  0.000365  ( 0.003650 -0.017521  0.006691)
 92:   3180.20   0.003059   15.46  0.000300  ( 0.003108  0.005310 -0.016195)
 93:   3183.97   0.001493    7.54  0.000146  (-0.006103 -0.000820 -0.010411)
 94:   3184.63   0.001029    5.20  0.000101  (-0.000095 -0.007625 -0.006534)
 95:   3185.33   0.000926    4.68  0.000091  ( 0.004356  0.005724 -0.006243)
 96:   3185.49   0.000994    5.03  0.000097  ( 0.000243 -0.009515  0.002611)
 97:   3189.87   0.009655   48.79  0.000945  (-0.030645  0.000940  0.002129)
 98:   3189.99   0.000559    2.82  0.000055  (-0.002743  0.006152 -0.003046)
 99:   3306.17   0.004670   23.60  0.000441  (-0.020961  0.001158 -0.000387)
100:   3323.44   0.005971   30.17  0.000561  (-0.001651 -0.018793  0.014308)
101:   3338.63   0.008373   42.32  0.000783  (-0.000404  0.022245 -0.016961)

--------------------------
THERMOCHEMISTRY AT 298.15K
--------------------------

Temperature         ... 298.15 K
Pressure            ... 1.00 atm
Total Mass          ... 181.30 AMU

Throughout the following assumptions are being made:
  (1) The electronic state is orbitally nondegenerate
  (2) There are no thermally accessible electronically excited states
  (3) Hindered rotations indicated by low frequency modes are not
      treated as such but are treated as vibrations and this may
      cause some error
  (4) All equations used are the standard statistical mechanics
      equations for an ideal gas
  (5) All vibrations are strictly harmonic

freq.      36.15  E(vib)   ...       0.54
freq.      45.72  E(vib)   ...       0.53
freq.     118.35  E(vib)   ...       0.44
freq.     144.03  E(vib)   ...       0.41
freq.     158.00  E(vib)   ...       0.40
freq.     238.39  E(vib)   ...       0.32
freq.     258.36  E(vib)   ...       0.30
freq.     270.66  E(vib)   ...       0.29
freq.     276.70  E(vib)   ...       0.28
freq.     291.57  E(vib)   ...       0.27
freq.     299.31  E(vib)   ...       0.26
freq.     332.77  E(vib)   ...       0.24
freq.     342.97  E(vib)   ...       0.23
freq.     347.49  E(vib)   ...       0.23
freq.     356.99  E(vib)   ...       0.22
freq.     363.39  E(vib)   ...       0.22
freq.     370.58  E(vib)   ...       0.21
freq.     406.76  E(vib)   ...       0.19
freq.     449.04  E(vib)   ...       0.17
freq.     470.62  E(vib)   ...       0.15
freq.     473.57  E(vib)   ...       0.15
freq.     521.91  E(vib)   ...       0.13
freq.     576.20  E(vib)   ...       0.11
freq.     639.35  E(vib)   ...       0.09
freq.     682.06  E(vib)   ...       0.08
freq.     689.69  E(vib)   ...       0.07
freq.     762.66  E(vib)   ...       0.06
freq.     847.26  E(vib)   ...       0.04
freq.     851.39  E(vib)   ...       0.04
freq.     897.85  E(vib)   ...       0.03
freq.     913.91  E(vib)   ...       0.03
freq.     949.70  E(vib)   ...       0.03
freq.     951.11  E(vib)   ...       0.03
freq.     956.98  E(vib)   ...       0.03
freq.     959.50  E(vib)   ...       0.03
freq.     973.88  E(vib)   ...       0.03
freq.     974.95  E(vib)   ...       0.03
freq.    1022.20  E(vib)   ...       0.02
freq.    1039.86  E(vib)   ...       0.02
freq.    1052.84  E(vib)   ...       0.02
freq.    1054.54  E(vib)   ...       0.02
freq.    1055.31  E(vib)   ...       0.02
freq.    1056.41  E(vib)   ...       0.02
freq.    1116.41  E(vib)   ...       0.01
freq.    1149.49  E(vib)   ...       0.01
freq.    1222.83  E(vib)   ...       0.01
freq.    1238.66  E(vib)   ...       0.01
freq.    1266.69  E(vib)   ...       0.01
freq.    1270.49  E(vib)   ...       0.01
freq.    1279.59  E(vib)   ...       0.01
freq.    1281.56  E(vib)   ...       0.01
freq.    1304.06  E(vib)   ...       0.01
freq.    1358.22  E(vib)   ...       0.01
freq.    1395.97  E(vib)   ...       0.00
freq.    1397.92  E(vib)   ...       0.00
freq.    1400.48  E(vib)   ...       0.00
freq.    1401.66  E(vib)   ...       0.00
freq.    1413.71  E(vib)   ...       0.00
freq.    1413.91  E(vib)   ...       0.00
freq.    1443.21  E(vib)   ...       0.00
freq.    1445.41  E(vib)   ...       0.00
freq.    1446.48  E(vib)   ...       0.00
freq.    1449.12  E(vib)   ...       0.00
freq.    1451.12  E(vib)   ...       0.00
freq.    1454.14  E(vib)   ...       0.00
freq.    1456.95  E(vib)   ...       0.00
freq.    1463.09  E(vib)   ...       0.00
freq.    1471.60  E(vib)   ...       0.00
freq.    1472.68  E(vib)   ...       0.00
freq.    1476.86  E(vib)   ...       0.00
freq.    1481.21  E(vib)   ...       0.00
freq.    1482.37  E(vib)   ...       0.00
freq.    1490.86  E(vib)   ...       0.00
freq.    1637.27  E(vib)   ...       0.00
freq.    1651.70  E(vib)   ...       0.00
freq.    3069.50  E(vib)   ...       0.00
freq.    3071.49  E(vib)   ...       0.00
freq.    3071.89  E(vib)   ...       0.00
freq.    3072.60  E(vib)   ...       0.00
freq.    3075.69  E(vib)   ...       0.00
freq.    3076.29  E(vib)   ...       0.00
freq.    3174.79  E(vib)   ...       0.00
freq.    3175.25  E(vib)   ...       0.00
freq.    3176.72  E(vib)   ...       0.00
freq.    3177.56  E(vib)   ...       0.00
freq.    3179.18  E(vib)   ...       0.00
freq.    3180.20  E(vib)   ...       0.00
freq.    3183.97  E(vib)   ...       0.00
freq.    3184.63  E(vib)   ...       0.00
freq.    3185.33  E(vib)   ...       0.00
freq.    3185.49  E(vib)   ...       0.00
freq.    3189.87  E(vib)   ...       0.00
freq.    3189.99  E(vib)   ...       0.00
freq.    3306.17  E(vib)   ...       0.00
freq.    3323.44  E(vib)   ...       0.00
freq.    3338.63  E(vib)   ...       0.00

------------
INNER ENERGY
------------

The inner energy is: U= E(el) + E(ZPE) + E(vib) + E(rot) + E(trans)
    E(el)   - is the total energy from the electronic structure calculation
              = E(kin-el) + E(nuc-el) + E(el-el) + E(nuc-nuc)
    E(ZPE)  - the the zero temperature vibrational energy from the frequency calculation
    E(vib)  - the the finite temperature correction to E(ZPE) due to population
              of excited vibrational states
    E(rot)  - is the rotational thermal energy
    E(trans)- is the translational thermal energy

Summary of contributions to the inner energy U:
Electronic energy                ...   -540.69434246 Eh
Zero point energy                ...      0.31155170 Eh     195.50 kcal/mol
Thermal vibrational correction   ...      0.01144078 Eh       7.18 kcal/mol
Thermal rotational correction    ...      0.00141627 Eh       0.89 kcal/mol
Thermal translational correction ...      0.00141627 Eh       0.89 kcal/mol
-----------------------------------------------------------------------
Total thermal energy                   -540.36851745 Eh

Summary of corrections to the electronic energy:
(perhaps to be used in another calculation)
Total thermal correction                  0.01427332 Eh       8.96 kcal/mol
Non-thermal (ZPE) correction              0.31155170 Eh     195.50 kcal/mol
-----------------------------------------------------------------------
Total correction                          0.32582501 Eh     204.46 kcal/mol

--------
ENTHALPY
--------

The enthalpy is H = U + kB*T
                kB is Boltzmann's constant
Total free energy                 ...   -540.36851745 Eh
Thermal Enthalpy correction       ...      0.00094421 Eh       0.59 kcal/mol
-----------------------------------------------------------------------
Total Enthalpy                    ...   -540.36757324 Eh

Note: Only C1 symmetry has been detected, increase convergence thresholds
      if your molecule has a higher symmetry. Symmetry factor of 1.0 is
      used for the rotational entropy correction.

Rotational constants in cm-1:     0.055426     0.014800     0.013831

                             ****ORCA TERMINATED NORMALLY****
TOTAL RUN TIME: 0 days 3 hours 59 minutes 44 seconds 919 msec
