                         Program Version 5.0.4 -  RELEASE  -
|  1> # ORCA 5.0.4 - /users/bwb16179/postgrad/2024_03/DFT_Crest_Conformers/Opt/prot/5_prot_aq_6.inp # write input file
|  2> # Basic Mode
|  3> #
|  4> ! Opt Freq wB97X Def2-SVP D4 SlowConv TightSCF Defgrid2 Def2/J RIJCOSX CPCM(Water)
|  5>
|  6>
|  7>
|  8> %maxcore 4500
|  9>
| 10> %geom
| 11> Maxiter 150
| 12> END
| 13>
| 14> * xyzfile 1 1 5_prot_aq_6.xyz
| 15>
| 16>                          ****END OF INPUT****
 Total Charge           Charge          ....    1
 Multiplicity           Mult            ....    1
 Number of Electrons    NEL             ....  100
Dispersion correction           -0.005634238
FINAL SINGLE POINT ENERGY      -540.688185635967
Dispersion correction            ... Starting D4
Dispersion correction           -0.005612674
FINAL SINGLE POINT ENERGY      -540.692208228170
Dispersion correction            ... Starting D4
Dispersion correction           -0.005610335
FINAL SINGLE POINT ENERGY      -540.692363406627
Dispersion correction            ... Starting D4
FINAL SINGLE POINT ENERGY      -540.692424123319
FINAL SINGLE POINT ENERGY      -540.692432449128
FINAL SINGLE POINT ENERGY      -540.692434982364
FINAL SINGLE POINT ENERGY      -540.692433550469
FINAL SINGLE POINT ENERGY      -540.692428054067
FINAL SINGLE POINT ENERGY      -540.692397267113
FINAL SINGLE POINT ENERGY      -540.692430579827
FINAL SINGLE POINT ENERGY      -540.692458689810
Dispersion correction           -0.005606912
FINAL SINGLE POINT ENERGY      -540.692477949704
Dispersion correction            ... Starting D4
Dispersion correction           -0.005607495
FINAL SINGLE POINT ENERGY      -540.692481799280
Dispersion correction            ... Starting D4
                    ***********************HURRAY********************

CARTESIAN COORDINATES (ANGSTROEM)
---------------------------------
  N     -1.090042   -0.092958   -0.260435
  C      0.001652    0.154386    0.462322
  N      1.087182   -0.132193   -0.255401
  H      0.005863    0.535035    1.483649
  C      0.673851   -0.582725   -1.489652
  C     -0.687249   -0.558387   -1.492802
  C     -2.493595    0.129239    0.222348
  C      2.495624    0.038887    0.233446
  C     -3.462509   -0.260618   -0.889323
  C     -2.645225    1.613252    0.559684
  C     -2.718944   -0.749278    1.453830
  C      3.454880   -0.398013   -0.868827
  C      2.678211   -0.839224    1.472175
  C      2.704426    1.518179    0.560746
  H      1.364097   -0.885134   -2.271626
  H     -1.383870   -0.836419   -2.278175
  H     -3.366896   -1.323224   -1.158982
  H     -3.318748    0.355782   -1.789391
  H     -4.486275   -0.094395   -0.526110
  H     -2.045219   -0.473218    2.279001
  H     -2.563833   -1.810843    1.208729
  H     -3.753157   -0.619343    1.804346
  H      2.008618   -0.533104    2.289998
  H      3.713626   -0.745826    1.830768
  H      2.485503   -1.895830    1.232241
  H     -2.424780    2.236600   -0.320166
  H     -1.979676    1.913472    1.383165
  H     -3.680965    1.807443    0.874455
  H      4.481899   -0.275109   -0.497543
  H      3.345649    0.219343   -1.773052
  H      3.314979   -1.456806   -1.133805
  H      2.048768    1.849668    1.380125
  H      2.511076    2.143522   -0.323983
  H      3.745946    1.673793    0.877820

 Multiplicity           Mult            ....    1
 Number of Electrons    NEL             ....  100
 Basis Dimension        Dim             ....  287

ORBITAL ENERGIES
----------------

  NO   OCC          E(Eh)            E(eV)
   0   2.0000     -14.508422      -394.7942
   1   2.0000     -14.508395      -394.7935
   2   2.0000     -10.380947      -282.4799
   3   2.0000     -10.345838      -281.5246
   4   2.0000     -10.345787      -281.5232
   5   2.0000     -10.332597      -281.1643
   6   2.0000     -10.332022      -281.1486
   7   2.0000     -10.275155      -279.6012
   8   2.0000     -10.275099      -279.5997
   9   2.0000     -10.274262      -279.5769
  10   2.0000     -10.274257      -279.5768
  11   2.0000     -10.274244      -279.5764
  12   2.0000     -10.274237      -279.5762
  13   2.0000      -1.213106       -33.0103
  14   2.0000      -1.094801       -29.7911
  15   2.0000      -0.980209       -26.6729
  16   2.0000      -0.933226       -25.3944
  17   2.0000      -0.920226       -25.0406
  18   2.0000      -0.833830       -22.6897
  19   2.0000      -0.823976       -22.4215
  20   2.0000      -0.822969       -22.3941
  21   2.0000      -0.821830       -22.3631
  22   2.0000      -0.792109       -21.5544
  23   2.0000      -0.763802       -20.7841
  24   2.0000      -0.726281       -19.7631
  25   2.0000      -0.700371       -19.0581
  26   2.0000      -0.642815       -17.4919
  27   2.0000      -0.627083       -17.0638
  28   2.0000      -0.607205       -16.5229
  29   2.0000      -0.588395       -16.0110
  30   2.0000      -0.585684       -15.9373
  31   2.0000      -0.577330       -15.7099
  32   2.0000      -0.569128       -15.4868
  33   2.0000      -0.556656       -15.1474
  34   2.0000      -0.554335       -15.0842
  35   2.0000      -0.546995       -14.8845
  36   2.0000      -0.516161       -14.0455
  37   2.0000      -0.506967       -13.7953
  38   2.0000      -0.498902       -13.5758
  39   2.0000      -0.498484       -13.5644
  40   2.0000      -0.490018       -13.3341
  41   2.0000      -0.487117       -13.2551
  42   2.0000      -0.480096       -13.0641
  43   2.0000      -0.479735       -13.0543
  44   2.0000      -0.467275       -12.7152
  45   2.0000      -0.454646       -12.3716
  46   2.0000      -0.452393       -12.3102
  47   2.0000      -0.452040       -12.3006
  48   2.0000      -0.413984       -11.2651
  49   2.0000      -0.370725       -10.0879
  50   0.0000       0.058424         1.5898
  51   0.0000       0.097441         2.6515
  52   0.0000       0.129674         3.5286
  53   0.0000       0.144005         3.9186
  54   0.0000       0.158927         4.3246

MULLIKEN ATOMIC CHARGES
-----------------------
   0 N :   -0.180620
   1 C :    0.200740
   2 N :   -0.180580
   3 H :    0.144382
   4 C :    0.062397
   5 C :    0.062291
   6 C :   -0.238862
   7 C :   -0.239074
   8 C :    0.011795
   9 C :    0.033741
  10 C :    0.035209
  11 C :    0.012325
  12 C :    0.034589
  13 C :    0.034322
  14 H :    0.099478
  15 H :    0.099444
  16 H :    0.058536
  17 H :    0.058152
  18 H :    0.062673
  19 H :    0.050229
  20 H :    0.053904
  21 H :    0.058125
  22 H :    0.050181
  23 H :    0.058160
  24 H :    0.054008
  25 H :    0.053945
  26 H :    0.050320
  27 H :    0.058474
  28 H :    0.062545
  29 H :    0.058238
  30 H :    0.058329
  31 H :    0.050168
  32 H :    0.054010
  33 H :    0.058424
Sum of atomic charges:    1.0000000

LOEWDIN ATOMIC CHARGES
----------------------
   0 N :    0.100966
   1 C :    0.119746
   2 N :    0.100950
   3 H :    0.064415
   4 C :    0.013868
   5 C :    0.013848
   6 C :    0.017463
   7 C :    0.017367
   8 C :   -0.047634
   9 C :   -0.045535
  10 C :   -0.045267
  11 C :   -0.047544
  12 C :   -0.045271
  13 C :   -0.045525
  14 H :    0.059709
  15 H :    0.059715
  16 H :    0.037728
  17 H :    0.037603
  18 H :    0.047365
  19 H :    0.034697
  20 H :    0.037326
  21 H :    0.043911
  22 H :    0.034628
  23 H :    0.043900
  24 H :    0.037369
  25 H :    0.037253
  26 H :    0.034667
  27 H :    0.043861
  28 H :    0.047343
  29 H :    0.037612
  30 H :    0.037708
  31 H :    0.034633
  32 H :    0.037266
  33 H :    0.043859

  Mayer bond orders larger than 0.100000
B(  0-N ,  1-C ) :   1.3570 B(  0-N ,  5-C ) :   1.1868 B(  0-N ,  6-C ) :   0.7920
B(  1-C ,  2-N ) :   1.3568 B(  1-C ,  3-H ) :   0.9643 B(  2-N ,  4-C ) :   1.1868
B(  2-N ,  7-C ) :   0.7920 B(  4-C ,  5-C ) :   1.5653 B(  4-C , 14-H ) :   0.9830
B(  5-C , 15-H ) :   0.9831 B(  6-C ,  8-C ) :   1.0689 B(  6-C ,  9-C ) :   1.0397
B(  6-C , 10-C ) :   1.0401 B(  7-C , 11-C ) :   1.0688 B(  7-C , 12-C ) :   1.0402
B(  7-C , 13-C ) :   1.0397 B(  8-C , 16-H ) :   0.9567 B(  8-C , 17-H ) :   0.9567
B(  8-C , 18-H ) :   0.9622 B(  9-C , 25-H ) :   0.9647 B(  9-C , 26-H ) :   0.9612
B(  9-C , 27-H ) :   0.9691 B( 10-C , 19-H ) :   0.9611 B( 10-C , 20-H ) :   0.9648
B( 10-C , 21-H ) :   0.9690 B( 11-C , 28-H ) :   0.9622 B( 11-C , 29-H ) :   0.9567
B( 11-C , 30-H ) :   0.9567 B( 12-C , 22-H ) :   0.9610 B( 12-C , 23-H ) :   0.9690
B( 12-C , 24-H ) :   0.9648 B( 13-C , 31-H ) :   0.9612 B( 13-C , 32-H ) :   0.9647
B( 13-C , 33-H ) :   0.9692

Dispersion correction           -0.005607861
FINAL SINGLE POINT ENERGY      -540.692484565584

DIPOLE MOMENT
-------------
                                X             Y             Z
Electronic contribution:     -0.02203      -1.74479      -4.30464
Nuclear contribution   :      0.02161       1.73521       4.27811
                        -----------------------------------------
Total Dipole Moment    :     -0.00043      -0.00959      -0.02653
                        -----------------------------------------
Magnitude (a.u.)       :      0.02821
Magnitude (Debye)      :      0.07171

Dispersion correction in the Hessian             ... Starting D4

VIBRATIONAL FREQUENCIES
-----------------------

Scaling factor for frequencies =  1.000000000  (already applied!)

   0:         0.00 cm**-1
   1:         0.00 cm**-1
   2:         0.00 cm**-1
   3:         0.00 cm**-1
   4:         0.00 cm**-1
   5:         0.00 cm**-1
   6:        29.15 cm**-1
   7:        49.87 cm**-1
   8:        86.48 cm**-1
   9:       139.89 cm**-1
  10:       162.84 cm**-1
  11:       222.42 cm**-1
  12:       231.48 cm**-1
  13:       262.67 cm**-1
  14:       264.42 cm**-1
  15:       279.38 cm**-1
  16:       303.03 cm**-1
  17:       328.29 cm**-1
  18:       332.68 cm**-1
  19:       336.88 cm**-1
  20:       350.22 cm**-1
  21:       362.50 cm**-1
  22:       370.92 cm**-1
  23:       417.15 cm**-1
  24:       442.31 cm**-1
  25:       471.65 cm**-1
  26:       478.51 cm**-1
  27:       519.14 cm**-1
  28:       575.70 cm**-1
  29:       634.88 cm**-1
  30:       680.23 cm**-1
  31:       692.05 cm**-1
  32:       752.57 cm**-1
  33:       847.42 cm**-1
  34:       851.53 cm**-1
  35:       908.16 cm**-1
  36:       908.98 cm**-1
  37:       947.97 cm**-1
  38:       948.74 cm**-1
  39:       956.64 cm**-1
  40:       957.44 cm**-1
  41:       971.67 cm**-1
  42:       972.78 cm**-1
  43:      1023.31 cm**-1
  44:      1038.33 cm**-1
  45:      1051.53 cm**-1
  46:      1051.66 cm**-1
  47:      1057.33 cm**-1
  48:      1058.64 cm**-1
  49:      1128.78 cm**-1
  50:      1157.71 cm**-1
  51:      1220.63 cm**-1
  52:      1233.78 cm**-1
  53:      1273.58 cm**-1
  54:      1276.77 cm**-1
  55:      1280.09 cm**-1
  56:      1281.13 cm**-1
  57:      1309.01 cm**-1
  58:      1362.59 cm**-1
  59:      1396.60 cm**-1
  60:      1396.84 cm**-1
  61:      1398.26 cm**-1
  62:      1401.80 cm**-1
  63:      1413.30 cm**-1
  64:      1413.68 cm**-1
  65:      1442.81 cm**-1
  66:      1443.33 cm**-1
  67:      1446.35 cm**-1
  68:      1447.88 cm**-1
  69:      1449.15 cm**-1
  70:      1450.15 cm**-1
  71:      1452.07 cm**-1
  72:      1459.90 cm**-1
  73:      1469.12 cm**-1
  74:      1470.56 cm**-1
  75:      1472.64 cm**-1
  76:      1479.10 cm**-1
  77:      1479.90 cm**-1
  78:      1491.92 cm**-1
  79:      1637.31 cm**-1
  80:      1640.18 cm**-1
  81:      3071.28 cm**-1
  82:      3071.40 cm**-1
  83:      3073.32 cm**-1
  84:      3073.36 cm**-1
  85:      3077.43 cm**-1
  86:      3077.59 cm**-1
  87:      3176.71 cm**-1
  88:      3177.20 cm**-1
  89:      3178.96 cm**-1
  90:      3179.16 cm**-1
  91:      3180.03 cm**-1
  92:      3180.45 cm**-1
  93:      3184.06 cm**-1
  94:      3184.14 cm**-1
  95:      3185.15 cm**-1
  96:      3185.44 cm**-1
  97:      3190.27 cm**-1
  98:      3190.48 cm**-1
  99:      3308.42 cm**-1
 100:      3326.30 cm**-1
 101:      3342.93 cm**-1

IR SPECTRUM
-----------

 Mode   freq       eps      Int      T**2         TX        TY        TZ
       cm**-1   L/(mol*cm) km/mol    a.u.
----------------------------------------------------------------------------
  6:     29.15   0.000000    0.00  0.000000  ( 0.000400 -0.000191 -0.000173)
  7:     49.87   0.000001    0.00  0.000006  (-0.000078  0.001749 -0.001587)
  8:     86.48   0.000021    0.10  0.000075  (-0.000249  0.008241 -0.002640)
  9:    139.89   0.000027    0.13  0.000059  ( 0.000067 -0.002079 -0.007406)
 10:    162.84   0.000000    0.00  0.000000  ( 0.000211  0.000262  0.000136)
 11:    222.42   0.000006    0.03  0.000008  ( 0.000664  0.002737  0.000227)
 12:    231.48   0.000000    0.00  0.000001  (-0.000256  0.000366 -0.000602)
 13:    262.67   0.000030    0.15  0.000036  (-0.001636  0.001995  0.005436)
 14:    264.42   0.000017    0.08  0.000020  (-0.002257 -0.000559 -0.003794)
 15:    279.38   0.000024    0.12  0.000027  (-0.005201 -0.000012  0.000051)
 16:    303.03   0.000006    0.03  0.000006  (-0.000131 -0.000139 -0.002410)
 17:    328.29   0.000010    0.05  0.000010  (-0.000151  0.003005  0.000919)
 18:    332.68   0.000013    0.07  0.000012  (-0.000170  0.000839  0.003426)
 19:    336.88   0.000007    0.03  0.000006  ( 0.000668 -0.001571  0.001853)
 20:    350.22   0.000096    0.48  0.000085  ( 0.000124  0.008665 -0.003170)
 21:    362.50   0.000001    0.00  0.000000  (-0.000645 -0.000197  0.000085)
 22:    370.92   0.000000    0.00  0.000000  ( 0.000178  0.000195  0.000060)
 23:    417.15   0.000012    0.06  0.000009  ( 0.002974 -0.000028 -0.000123)
 24:    442.31   0.000012    0.06  0.000009  ( 0.000119  0.002819 -0.000880)
 25:    471.65   0.000035    0.18  0.000023  (-0.000033  0.001604  0.004524)
 26:    478.51   0.000001    0.00  0.000000  ( 0.000614  0.000087 -0.000067)
 27:    519.14   0.000033    0.17  0.000020  (-0.004403  0.000432 -0.000276)
 28:    575.70   0.000142    0.72  0.000077  ( 0.000021  0.002940  0.008255)
 29:    634.88   0.001973    9.97  0.000970  (-0.031131  0.000923 -0.000191)
 30:    680.23   0.000001    0.00  0.000000  ( 0.000459  0.000294 -0.000111)
 31:    692.05   0.014898   75.29  0.006718  ( 0.001605  0.076637 -0.029020)
 32:    752.57   0.009550   48.26  0.003960  ( 0.000826  0.058698 -0.022672)
 33:    847.42   0.000000    0.00  0.000000  ( 0.000114 -0.000159 -0.000308)
 34:    851.53   0.000305    1.54  0.000112  (-0.010575  0.000232 -0.000041)
 35:    908.16   0.004632   23.41  0.001592  (-0.000812 -0.037087  0.014686)
 36:    908.98   0.000061    0.31  0.000021  ( 0.000325 -0.004364  0.001336)
 37:    947.97   0.000256    1.29  0.000084  ( 0.000240 -0.007994  0.004488)
 38:    948.74   0.000953    4.82  0.000313  (-0.001111  0.016356 -0.006684)
 39:    956.64   0.000633    3.20  0.000206  (-0.013450  0.000995  0.004950)
 40:    957.44   0.001008    5.10  0.000329  ( 0.003855  0.006186  0.016599)
 41:    971.67   0.000023    0.12  0.000007  ( 0.000738 -0.002559  0.000601)
 42:    972.78   0.000137    0.69  0.000044  (-0.000848 -0.006543  0.000563)
 43:   1023.31   0.001363    6.89  0.000416  ( 0.020387 -0.000189 -0.000011)
 44:   1038.33   0.000035    0.18  0.000011  ( 0.000014 -0.001088 -0.003075)
 45:   1051.53   0.000037    0.19  0.000011  ( 0.003084 -0.000693  0.001015)
 46:   1051.66   0.000032    0.16  0.000010  ( 0.002788  0.000421 -0.001297)
 47:   1057.33   0.000021    0.10  0.000006  (-0.000154 -0.002184  0.001123)
 48:   1058.64   0.000222    1.12  0.000065  (-0.000064 -0.007733  0.002384)
 49:   1128.78   0.005740   29.01  0.001587  ( 0.000686  0.014428  0.037123)
 50:   1157.71   0.014013   70.81  0.003777  (-0.061447  0.001171  0.000156)
 51:   1220.63   0.002744   13.87  0.000701  (-0.000689  0.010263  0.024406)
 52:   1233.78   0.075881  383.47  0.019193  (-0.138516  0.002398 -0.000419)
 53:   1273.58   0.000566    2.86  0.000139  (-0.001321  0.003631  0.011120)
 54:   1276.77   0.001415    7.15  0.000346  ( 0.018510  0.001807  0.000077)
 55:   1280.09   0.000183    0.93  0.000045  (-0.001994 -0.005905  0.002403)
 56:   1281.13   0.006769   34.21  0.001649  (-0.000583  0.038036 -0.014200)
 57:   1309.01   0.001032    5.21  0.000246  (-0.015677  0.000368  0.000146)
 58:   1362.59   0.005849   29.56  0.001340  ( 0.000273  0.013234  0.034122)
 59:   1396.60   0.000712    3.60  0.000159  ( 0.002400  0.011656  0.004184)
 60:   1396.84   0.010183   51.46  0.002275  (-0.001032  0.035789 -0.031512)
 61:   1398.26   0.008079   40.83  0.001803  (-0.001162 -0.028367 -0.031576)
 62:   1401.80   0.004114   20.79  0.000916  (-0.030123 -0.000783  0.002818)
 63:   1413.30   0.000221    1.11  0.000049  (-0.004470 -0.002470 -0.004755)
 64:   1413.68   0.001734    8.76  0.000383  (-0.019381  0.002520  0.000831)
 65:   1442.81   0.000067    0.34  0.000015  (-0.000059 -0.003808  0.000043)
 66:   1443.33   0.000081    0.41  0.000018  ( 0.000342  0.003785 -0.001770)
 67:   1446.35   0.000092    0.46  0.000020  (-0.001279  0.004170  0.000896)
 68:   1447.88   0.000101    0.51  0.000022  (-0.003529 -0.002831  0.001135)
 69:   1449.15   0.000233    1.18  0.000050  ( 0.006337  0.000160  0.003144)
 70:   1450.15   0.000453    2.29  0.000097  (-0.003382  0.002056  0.009046)
 71:   1452.07   0.000399    2.02  0.000086  (-0.009177  0.000173 -0.001213)
 72:   1459.90   0.007293   36.86  0.001559  ( 0.000213  0.016196  0.036009)
 73:   1469.12   0.000778    3.93  0.000165  (-0.000021 -0.012186  0.004083)
 74:   1470.56   0.002326   11.76  0.000494  (-0.002310  0.019722 -0.009966)
 75:   1472.64   0.000688    3.48  0.000146  ( 0.011802  0.002334 -0.000998)
 76:   1479.10   0.002536   12.81  0.000535  ( 0.023076  0.001051  0.001166)
 77:   1479.90   0.000567    2.87  0.000120  (-0.002386  0.000026  0.010671)
 78:   1491.92   0.000004    0.02  0.000001  (-0.000487  0.000320 -0.000697)
 79:   1637.31   0.028490  143.98  0.005430  ( 0.073672 -0.001514 -0.000531)
 80:   1640.18   0.001909    9.65  0.000363  ( 0.002957  0.006633  0.017622)
 81:   3071.28   0.004129   20.87  0.000420  (-0.000804 -0.020467  0.000143)
 82:   3071.40   0.001917    9.69  0.000195  (-0.000346  0.013933 -0.000745)
 83:   3073.32   0.005119   25.87  0.000520  ( 0.001108  0.001357 -0.022730)
 84:   3073.36   0.000641    3.24  0.000065  (-0.003256  0.001254 -0.007275)
 85:   3077.43   0.000462    2.33  0.000047  (-0.005203 -0.002854 -0.003405)
 86:   3077.59   0.000508    2.57  0.000051  ( 0.004883 -0.003016 -0.004307)
 87:   3176.71   0.002027   10.24  0.000199  (-0.004649  0.004550 -0.012522)
 88:   3177.20   0.001221    6.17  0.000120  (-0.005728 -0.003832  0.008511)
 89:   3178.96   0.006224   31.45  0.000611  ( 0.002961 -0.013009 -0.020807)
 90:   3179.16   0.001863    9.42  0.000183  (-0.012732 -0.001715 -0.004226)
 91:   3180.03   0.002405   12.16  0.000236  (-0.000915 -0.014858  0.003800)
 92:   3180.45   0.002185   11.04  0.000214  ( 0.000228  0.013851 -0.004741)
 93:   3184.06   0.001642    8.30  0.000161  (-0.006756 -0.009909  0.004138)
 94:   3184.14   0.001719    8.69  0.000169  ( 0.003873 -0.011330  0.005014)
 95:   3185.15   0.001249    6.31  0.000122  ( 0.010358  0.001504 -0.003578)
 96:   3185.44   0.001215    6.14  0.000119  (-0.009508  0.003492 -0.004053)
 97:   3190.27   0.005747   29.04  0.000562  ( 0.022192  0.003199  0.007710)
 98:   3190.48   0.003866   19.54  0.000378  ( 0.015281 -0.005459 -0.010718)
 99:   3308.42   0.010884   55.00  0.001027  (-0.000138 -0.011092 -0.030059)
100:   3326.30   0.006628   33.50  0.000622  ( 0.024930 -0.000473 -0.000299)
101:   3342.93   0.003735   18.88  0.000349  ( 0.000888  0.006480  0.017490)

--------------------------
THERMOCHEMISTRY AT 298.15K
--------------------------

Temperature         ... 298.15 K
Pressure            ... 1.00 atm
Total Mass          ... 181.30 AMU

Throughout the following assumptions are being made:
  (1) The electronic state is orbitally nondegenerate
  (2) There are no thermally accessible electronically excited states
  (3) Hindered rotations indicated by low frequency modes are not
      treated as such but are treated as vibrations and this may
      cause some error
  (4) All equations used are the standard statistical mechanics
      equations for an ideal gas
  (5) All vibrations are strictly harmonic

freq.      29.15  E(vib)   ...       0.55
freq.      49.87  E(vib)   ...       0.52
freq.      86.48  E(vib)   ...       0.48
freq.     139.89  E(vib)   ...       0.41
freq.     162.84  E(vib)   ...       0.39
freq.     222.42  E(vib)   ...       0.33
freq.     231.48  E(vib)   ...       0.32
freq.     262.67  E(vib)   ...       0.29
freq.     264.42  E(vib)   ...       0.29
freq.     279.38  E(vib)   ...       0.28
freq.     303.03  E(vib)   ...       0.26
freq.     328.29  E(vib)   ...       0.24
freq.     332.68  E(vib)   ...       0.24
freq.     336.88  E(vib)   ...       0.24
freq.     350.22  E(vib)   ...       0.23
freq.     362.50  E(vib)   ...       0.22
freq.     370.92  E(vib)   ...       0.21
freq.     417.15  E(vib)   ...       0.18
freq.     442.31  E(vib)   ...       0.17
freq.     471.65  E(vib)   ...       0.15
freq.     478.51  E(vib)   ...       0.15
freq.     519.14  E(vib)   ...       0.13
freq.     575.70  E(vib)   ...       0.11
freq.     634.88  E(vib)   ...       0.09
freq.     680.23  E(vib)   ...       0.08
freq.     692.05  E(vib)   ...       0.07
freq.     752.57  E(vib)   ...       0.06
freq.     847.42  E(vib)   ...       0.04
freq.     851.53  E(vib)   ...       0.04
freq.     908.16  E(vib)   ...       0.03
freq.     908.98  E(vib)   ...       0.03
freq.     947.97  E(vib)   ...       0.03
freq.     948.74  E(vib)   ...       0.03
freq.     956.64  E(vib)   ...       0.03
freq.     957.44  E(vib)   ...       0.03
freq.     971.67  E(vib)   ...       0.03
freq.     972.78  E(vib)   ...       0.03
freq.    1023.31  E(vib)   ...       0.02
freq.    1038.33  E(vib)   ...       0.02
freq.    1051.53  E(vib)   ...       0.02
freq.    1051.66  E(vib)   ...       0.02
freq.    1057.33  E(vib)   ...       0.02
freq.    1058.64  E(vib)   ...       0.02
freq.    1128.78  E(vib)   ...       0.01
freq.    1157.71  E(vib)   ...       0.01
freq.    1220.63  E(vib)   ...       0.01
freq.    1233.78  E(vib)   ...       0.01
freq.    1273.58  E(vib)   ...       0.01
freq.    1276.77  E(vib)   ...       0.01
freq.    1280.09  E(vib)   ...       0.01
freq.    1281.13  E(vib)   ...       0.01
freq.    1309.01  E(vib)   ...       0.01
freq.    1362.59  E(vib)   ...       0.01
freq.    1396.60  E(vib)   ...       0.00
freq.    1396.84  E(vib)   ...       0.00
freq.    1398.26  E(vib)   ...       0.00
freq.    1401.80  E(vib)   ...       0.00
freq.    1413.30  E(vib)   ...       0.00
freq.    1413.68  E(vib)   ...       0.00
freq.    1442.81  E(vib)   ...       0.00
freq.    1443.33  E(vib)   ...       0.00
freq.    1446.35  E(vib)   ...       0.00
freq.    1447.88  E(vib)   ...       0.00
freq.    1449.15  E(vib)   ...       0.00
freq.    1450.15  E(vib)   ...       0.00
freq.    1452.07  E(vib)   ...       0.00
freq.    1459.90  E(vib)   ...       0.00
freq.    1469.12  E(vib)   ...       0.00
freq.    1470.56  E(vib)   ...       0.00
freq.    1472.64  E(vib)   ...       0.00
freq.    1479.10  E(vib)   ...       0.00
freq.    1479.90  E(vib)   ...       0.00
freq.    1491.92  E(vib)   ...       0.00
freq.    1637.31  E(vib)   ...       0.00
freq.    1640.18  E(vib)   ...       0.00
freq.    3071.28  E(vib)   ...       0.00
freq.    3071.40  E(vib)   ...       0.00
freq.    3073.32  E(vib)   ...       0.00
freq.    3073.36  E(vib)   ...       0.00
freq.    3077.43  E(vib)   ...       0.00
freq.    3077.59  E(vib)   ...       0.00
freq.    3176.71  E(vib)   ...       0.00
freq.    3177.20  E(vib)   ...       0.00
freq.    3178.96  E(vib)   ...       0.00
freq.    3179.16  E(vib)   ...       0.00
freq.    3180.03  E(vib)   ...       0.00
freq.    3180.45  E(vib)   ...       0.00
freq.    3184.06  E(vib)   ...       0.00
freq.    3184.14  E(vib)   ...       0.00
freq.    3185.15  E(vib)   ...       0.00
freq.    3185.44  E(vib)   ...       0.00
freq.    3190.27  E(vib)   ...       0.00
freq.    3190.48  E(vib)   ...       0.00
freq.    3308.42  E(vib)   ...       0.00
freq.    3326.30  E(vib)   ...       0.00
freq.    3342.93  E(vib)   ...       0.00

------------
INNER ENERGY
------------

The inner energy is: U= E(el) + E(ZPE) + E(vib) + E(rot) + E(trans)
    E(el)   - is the total energy from the electronic structure calculation
              = E(kin-el) + E(nuc-el) + E(el-el) + E(nuc-nuc)
    E(ZPE)  - the the zero temperature vibrational energy from the frequency calculation
    E(vib)  - the the finite temperature correction to E(ZPE) due to population
              of excited vibrational states
    E(rot)  - is the rotational thermal energy
    E(trans)- is the translational thermal energy

Summary of contributions to the inner energy U:
Electronic energy                ...   -540.69248457 Eh
Zero point energy                ...      0.31124433 Eh     195.31 kcal/mol
Thermal vibrational correction   ...      0.01164189 Eh       7.31 kcal/mol
Thermal rotational correction    ...      0.00141627 Eh       0.89 kcal/mol
Thermal translational correction ...      0.00141627 Eh       0.89 kcal/mol
-----------------------------------------------------------------------
Total thermal energy                   -540.36676581 Eh

Summary of corrections to the electronic energy:
(perhaps to be used in another calculation)
Total thermal correction                  0.01447443 Eh       9.08 kcal/mol
Non-thermal (ZPE) correction              0.31124433 Eh     195.31 kcal/mol
-----------------------------------------------------------------------
Total correction                          0.32571876 Eh     204.39 kcal/mol

--------
ENTHALPY
--------

The enthalpy is H = U + kB*T
                kB is Boltzmann's constant
Total free energy                 ...   -540.36676581 Eh
Thermal Enthalpy correction       ...      0.00094421 Eh       0.59 kcal/mol
-----------------------------------------------------------------------
Total Enthalpy                    ...   -540.36582160 Eh

Note: Only C1 symmetry has been detected, increase convergence thresholds
      if your molecule has a higher symmetry. Symmetry factor of 1.0 is
      used for the rotational entropy correction.

Rotational constants in cm-1:     0.054882     0.014954     0.013932

                             ****ORCA TERMINATED NORMALLY****
TOTAL RUN TIME: 0 days 2 hours 45 minutes 1 seconds 103 msec
