                         Program Version 5.0.4 -  RELEASE  -
|  1> # ORCA 5.0.4 - /users/bwb16179/postgrad/2024_03/DFT_Crest_Conformers/Opt/prot/5_prot_aq_7.inp # write input file
|  2> # Basic Mode
|  3> #
|  4> ! Opt Freq wB97X Def2-SVP D4 SlowConv TightSCF Defgrid2 Def2/J RIJCOSX CPCM(Water)
|  5>
|  6>
|  7>
|  8> %maxcore 4500
|  9>
| 10> %geom
| 11> Maxiter 150
| 12> END
| 13>
| 14> * xyzfile 1 1 5_prot_aq_7.xyz
| 15>
| 16>                          ****END OF INPUT****
 Total Charge           Charge          ....    1
 Multiplicity           Mult            ....    1
 Number of Electrons    NEL             ....  100
Dispersion correction           -0.005601526
FINAL SINGLE POINT ENERGY      -540.692908714051
Dispersion correction            ... Starting D4
Dispersion correction           -0.005602417
FINAL SINGLE POINT ENERGY      -540.693063794340
Dispersion correction            ... Starting D4
Dispersion correction           -0.005602925
FINAL SINGLE POINT ENERGY      -540.693250506246
Dispersion correction            ... Starting D4
FINAL SINGLE POINT ENERGY      -540.693298621575
FINAL SINGLE POINT ENERGY      -540.693357120758
FINAL SINGLE POINT ENERGY      -540.693390379688
FINAL SINGLE POINT ENERGY      -540.693373130379
FINAL SINGLE POINT ENERGY      -540.693435379517
FINAL SINGLE POINT ENERGY      -540.693442753167
FINAL SINGLE POINT ENERGY      -540.693434211023
FINAL SINGLE POINT ENERGY      -540.693451393952
FINAL SINGLE POINT ENERGY      -540.693459406250
FINAL SINGLE POINT ENERGY      -540.693468658706
FINAL SINGLE POINT ENERGY      -540.693484152234
Dispersion correction           -0.005597295
FINAL SINGLE POINT ENERGY      -540.693492947101
Dispersion correction            ... Starting D4
Dispersion correction           -0.005597437
FINAL SINGLE POINT ENERGY      -540.693497835076
Dispersion correction            ... Starting D4
                    ***********************HURRAY********************

CARTESIAN COORDINATES (ANGSTROEM)
---------------------------------
  N     -1.088578   -0.233544    0.173040
  C     -0.020258    0.503688   -0.134017
  N      1.086759   -0.181218    0.144241
  H     -0.055547    1.509333   -0.548181
  C      0.714095   -1.407321    0.652640
  C     -0.645499   -1.440024    0.670955
  C     -2.507831    0.214611   -0.016387
  C      2.501074    0.255454   -0.079907
  C     -2.742560    1.438893    0.869634
  C     -3.440231   -0.922013    0.391076
  C     -2.704644    0.551363   -1.495330
  C      3.123570   -0.700475   -1.098716
  C      3.232009    0.190680    1.261144
  C      2.507288    1.682549   -0.618306
  H      1.436823   -2.160726    0.958098
  H     -1.316974   -2.228562    0.997922
  H     -3.785824    1.769425    0.760780
  H     -2.089234    2.276973    0.582586
  H     -2.562022    1.194477    1.927436
  H     -3.752354    0.840943   -1.662359
  H     -2.478443   -0.321094   -2.127005
  H     -2.068807    1.392496   -1.810584
  H      3.244979   -0.831139    1.668558
  H      2.761099    0.860423    1.996578
  H      4.274580    0.508871    1.115741
  H     -4.476146   -0.588517    0.238289
  H     -3.322872   -1.185319    1.453073
  H     -3.279432   -1.819522   -0.225100
  H      3.139617   -1.735490   -0.725421
  H      4.161597   -0.394294   -1.294189
  H      2.566402   -0.673587   -2.047497
  H      1.990986    1.756408   -1.587576
  H      3.552029    1.986790   -0.771837
  H      2.050093    2.387843    0.092513

 Multiplicity           Mult            ....    1
 Number of Electrons    NEL             ....  100
 Basis Dimension        Dim             ....  287

ORBITAL ENERGIES
----------------

  NO   OCC          E(Eh)            E(eV)
   0   2.0000     -14.508813      -394.8049
   1   2.0000     -14.507154      -394.7597
   2   2.0000     -10.382233      -282.5149
   3   2.0000     -10.345668      -281.5199
   4   2.0000     -10.345550      -281.5167
   5   2.0000     -10.333457      -281.1876
   6   2.0000     -10.331507      -281.1346
   7   2.0000     -10.276054      -279.6257
   8   2.0000     -10.275081      -279.5992
   9   2.0000     -10.274203      -279.5753
  10   2.0000     -10.273978      -279.5692
  11   2.0000     -10.273836      -279.5653
  12   2.0000     -10.273737      -279.5626
  13   2.0000      -1.213029       -33.0082
  14   2.0000      -1.094865       -29.7928
  15   2.0000      -0.980078       -26.6693
  16   2.0000      -0.932849       -25.3841
  17   2.0000      -0.920765       -25.0553
  18   2.0000      -0.833376       -22.6773
  19   2.0000      -0.823505       -22.4087
  20   2.0000      -0.823422       -22.4065
  21   2.0000      -0.822700       -22.3868
  22   2.0000      -0.792009       -21.5517
  23   2.0000      -0.764138       -20.7933
  24   2.0000      -0.725340       -19.7375
  25   2.0000      -0.701342       -19.0845
  26   2.0000      -0.643329       -17.5059
  27   2.0000      -0.627293       -17.0695
  28   2.0000      -0.606483       -16.5032
  29   2.0000      -0.586220       -15.9519
  30   2.0000      -0.585944       -15.9444
  31   2.0000      -0.577036       -15.7019
  32   2.0000      -0.573654       -15.6099
  33   2.0000      -0.553680       -15.0664
  34   2.0000      -0.551904       -15.0181
  35   2.0000      -0.549265       -14.9463
  36   2.0000      -0.518156       -14.0997
  37   2.0000      -0.505076       -13.7438
  38   2.0000      -0.498873       -13.5750
  39   2.0000      -0.497124       -13.5274
  40   2.0000      -0.492461       -13.4005
  41   2.0000      -0.487055       -13.2534
  42   2.0000      -0.480057       -13.0630
  43   2.0000      -0.479715       -13.0537
  44   2.0000      -0.467241       -12.7143
  45   2.0000      -0.454087       -12.3563
  46   2.0000      -0.452651       -12.3173
  47   2.0000      -0.451544       -12.2871
  48   2.0000      -0.412168       -11.2157
  49   2.0000      -0.372646       -10.1402
  50   0.0000       0.060783         1.6540
  51   0.0000       0.095625         2.6021
  52   0.0000       0.130634         3.5547
  53   0.0000       0.143303         3.8995
  54   0.0000       0.163764         4.4562

MULLIKEN ATOMIC CHARGES
-----------------------
   0 N :   -0.186608
   1 C :    0.209325
   2 N :   -0.174396
   3 H :    0.136618
   4 C :    0.054899
   5 C :    0.065915
   6 C :   -0.237255
   7 C :   -0.239686
   8 C :    0.037665
   9 C :    0.010389
  10 C :    0.031322
  11 C :    0.039485
  12 C :    0.035360
  13 C :    0.002313
  14 H :    0.106763
  15 H :    0.098898
  16 H :    0.057673
  17 H :    0.049570
  18 H :    0.053219
  19 H :    0.058513
  20 H :    0.054225
  21 H :    0.049912
  22 H :    0.050515
  23 H :    0.052869
  24 H :    0.058009
  25 H :    0.062422
  26 H :    0.058828
  27 H :    0.057997
  28 H :    0.049846
  29 H :    0.058066
  30 H :    0.052049
  31 H :    0.060697
  32 H :    0.064037
  33 H :    0.060547
Sum of atomic charges:    1.0000000

LOEWDIN ATOMIC CHARGES
----------------------
   0 N :    0.095530
   1 C :    0.120114
   2 N :    0.102610
   3 H :    0.063790
   4 C :    0.012652
   5 C :    0.018873
   6 C :    0.017471
   7 C :    0.017267
   8 C :   -0.045316
   9 C :   -0.047609
  10 C :   -0.045884
  11 C :   -0.044472
  12 C :   -0.044734
  13 C :   -0.048959
  14 H :    0.059547
  15 H :    0.059930
  16 H :    0.043553
  17 H :    0.034651
  18 H :    0.037062
  19 H :    0.043906
  20 H :    0.037263
  21 H :    0.034593
  22 H :    0.034923
  23 H :    0.037025
  24 H :    0.043943
  25 H :    0.047269
  26 H :    0.037517
  27 H :    0.037619
  28 H :    0.034786
  29 H :    0.043572
  30 H :    0.036778
  31 H :    0.037960
  32 H :    0.048553
  33 H :    0.038214

  Mayer bond orders larger than 0.100000
B(  0-N ,  1-C ) :   1.3408 B(  0-N ,  5-C ) :   1.1812 B(  0-N ,  6-C ) :   0.7928
B(  1-C ,  2-N ) :   1.3711 B(  1-C ,  3-H ) :   0.9611 B(  2-N ,  4-C ) :   1.1714
B(  2-N ,  7-C ) :   0.8094 B(  4-C ,  5-C ) :   1.5944 B(  4-C , 14-H ) :   0.9796
B(  5-C , 15-H ) :   0.9852 B(  6-C ,  8-C ) :   1.0396 B(  6-C ,  9-C ) :   1.0681
B(  6-C , 10-C ) :   1.0406 B(  7-C , 11-C ) :   1.0375 B(  7-C , 12-C ) :   1.0390
B(  7-C , 13-C ) :   1.0653 B(  8-C , 16-H ) :   0.9693 B(  8-C , 17-H ) :   0.9611
B(  8-C , 18-H ) :   0.9647 B(  9-C , 25-H ) :   0.9623 B(  9-C , 26-H ) :   0.9567
B(  9-C , 27-H ) :   0.9575 B( 10-C , 19-H ) :   0.9688 B( 10-C , 20-H ) :   0.9649
B( 10-C , 21-H ) :   0.9613 B( 11-C , 28-H ) :   0.9612 B( 11-C , 29-H ) :   0.9694
B( 11-C , 30-H ) :   0.9647 B( 12-C , 22-H ) :   0.9613 B( 12-C , 23-H ) :   0.9649
B( 12-C , 24-H ) :   0.9689 B( 13-C , 31-H ) :   0.9561 B( 13-C , 32-H ) :   0.9614
B( 13-C , 33-H ) :   0.9570

Dispersion correction           -0.005597460
FINAL SINGLE POINT ENERGY      -540.693498367939

DIPOLE MOMENT
-------------
                                X             Y             Z
Electronic contribution:      0.02736      -3.91105       1.83754
Nuclear contribution   :     -0.02729       3.91607      -1.84282
                        -----------------------------------------
Total Dipole Moment    :      0.00008       0.00502      -0.00528
                        -----------------------------------------
Magnitude (a.u.)       :      0.00729
Magnitude (Debye)      :      0.01852

Dispersion correction in the Hessian             ... Starting D4

VIBRATIONAL FREQUENCIES
-----------------------

Scaling factor for frequencies =  1.000000000  (already applied!)

   0:         0.00 cm**-1
   1:         0.00 cm**-1
   2:         0.00 cm**-1
   3:         0.00 cm**-1
   4:         0.00 cm**-1
   5:         0.00 cm**-1
   6:        29.63 cm**-1
   7:        35.28 cm**-1
   8:        96.37 cm**-1
   9:       140.00 cm**-1
  10:       158.60 cm**-1
  11:       228.87 cm**-1
  12:       234.68 cm**-1
  13:       262.12 cm**-1
  14:       266.40 cm**-1
  15:       273.89 cm**-1
  16:       299.49 cm**-1
  17:       328.38 cm**-1
  18:       333.07 cm**-1
  19:       340.48 cm**-1
  20:       346.14 cm**-1
  21:       363.98 cm**-1
  22:       370.42 cm**-1
  23:       410.25 cm**-1
  24:       443.49 cm**-1
  25:       470.74 cm**-1
  26:       475.11 cm**-1
  27:       520.20 cm**-1
  28:       574.55 cm**-1
  29:       636.01 cm**-1
  30:       680.42 cm**-1
  31:       684.97 cm**-1
  32:       758.49 cm**-1
  33:       847.04 cm**-1
  34:       851.01 cm**-1
  35:       891.24 cm**-1
  36:       912.98 cm**-1
  37:       947.66 cm**-1
  38:       948.94 cm**-1
  39:       955.34 cm**-1
  40:       957.15 cm**-1
  41:       970.67 cm**-1
  42:       974.62 cm**-1
  43:      1022.41 cm**-1
  44:      1039.61 cm**-1
  45:      1050.57 cm**-1
  46:      1052.07 cm**-1
  47:      1054.63 cm**-1
  48:      1057.15 cm**-1
  49:      1126.45 cm**-1
  50:      1147.52 cm**-1
  51:      1220.86 cm**-1
  52:      1234.42 cm**-1
  53:      1264.15 cm**-1
  54:      1272.62 cm**-1
  55:      1279.50 cm**-1
  56:      1281.09 cm**-1
  57:      1304.66 cm**-1
  58:      1360.16 cm**-1
  59:      1395.78 cm**-1
  60:      1396.49 cm**-1
  61:      1398.44 cm**-1
  62:      1402.20 cm**-1
  63:      1412.04 cm**-1
  64:      1413.82 cm**-1
  65:      1442.80 cm**-1
  66:      1443.72 cm**-1
  67:      1445.58 cm**-1
  68:      1446.54 cm**-1
  69:      1448.65 cm**-1
  70:      1451.36 cm**-1
  71:      1453.91 cm**-1
  72:      1460.34 cm**-1
  73:      1468.55 cm**-1
  74:      1470.97 cm**-1
  75:      1474.31 cm**-1
  76:      1480.19 cm**-1
  77:      1481.17 cm**-1
  78:      1489.98 cm**-1
  79:      1633.66 cm**-1
  80:      1648.08 cm**-1
  81:      3070.60 cm**-1
  82:      3072.08 cm**-1
  83:      3072.17 cm**-1
  84:      3073.03 cm**-1
  85:      3076.82 cm**-1
  86:      3076.91 cm**-1
  87:      3175.67 cm**-1
  88:      3175.82 cm**-1
  89:      3177.15 cm**-1
  90:      3178.78 cm**-1
  91:      3179.62 cm**-1
  92:      3180.91 cm**-1
  93:      3183.75 cm**-1
  94:      3184.40 cm**-1
  95:      3184.86 cm**-1
  96:      3185.44 cm**-1
  97:      3189.71 cm**-1
  98:      3190.28 cm**-1
  99:      3312.64 cm**-1
 100:      3323.30 cm**-1
 101:      3337.09 cm**-1

IR SPECTRUM
-----------

 Mode   freq       eps      Int      T**2         TX        TY        TZ
       cm**-1   L/(mol*cm) km/mol    a.u.
----------------------------------------------------------------------------
  6:     29.63   0.000000    0.00  0.000002  ( 0.001184  0.000251  0.000813)
  7:     35.28   0.000000    0.00  0.000001  ( 0.000512 -0.000550 -0.000586)
  8:     96.37   0.000019    0.10  0.000062  (-0.000363  0.003038  0.007246)
  9:    140.00   0.000021    0.10  0.000046  (-0.000173  0.006167 -0.002832)
 10:    158.60   0.000001    0.00  0.000002  ( 0.000144  0.001050  0.000724)
 11:    228.87   0.000004    0.02  0.000006  ( 0.000009  0.001437  0.002003)
 12:    234.68   0.000001    0.01  0.000001  ( 0.000288  0.001108 -0.000408)
 13:    262.12   0.000017    0.09  0.000020  ( 0.001026  0.004180 -0.001360)
 14:    266.40   0.000001    0.00  0.000001  (-0.000345 -0.000633  0.000597)
 15:    273.89   0.000037    0.19  0.000043  (-0.003553 -0.005104  0.001992)
 16:    299.49   0.000007    0.04  0.000008  ( 0.002653  0.000140 -0.000785)
 17:    328.38   0.000014    0.07  0.000014  ( 0.000400  0.001780  0.003230)
 18:    333.07   0.000033    0.17  0.000031  (-0.000076  0.002808  0.004824)
 19:    340.48   0.000019    0.09  0.000017  (-0.000377 -0.003801  0.001586)
 20:    346.14   0.000036    0.18  0.000033  ( 0.000179 -0.000653 -0.005687)
 21:    363.98   0.000006    0.03  0.000005  ( 0.000841  0.000810  0.002007)
 22:    370.42   0.000005    0.03  0.000004  ( 0.000414 -0.001816 -0.000928)
 23:    410.25   0.000020    0.10  0.000015  ( 0.003716  0.001097 -0.000410)
 24:    443.49   0.000005    0.02  0.000003  ( 0.000591  0.000522  0.001640)
 25:    470.74   0.000052    0.26  0.000035  (-0.004673 -0.003427  0.001022)
 26:    475.11   0.000015    0.08  0.000010  (-0.001385 -0.001893 -0.002087)
 27:    520.20   0.000010    0.05  0.000006  (-0.001776 -0.001510 -0.000683)
 28:    574.55   0.000155    0.78  0.000084  (-0.000570  0.008419 -0.003602)
 29:    636.01   0.001601    8.09  0.000786  (-0.028022  0.000494  0.000145)
 30:    680.42   0.012546   63.40  0.005754  ( 0.002124  0.030138  0.069578)
 31:    684.97   0.002168   10.95  0.000988  (-0.001664 -0.012341 -0.028852)
 32:    758.49   0.009160   46.29  0.003769  (-0.001157  0.024859  0.056119)
 33:    847.04   0.000019    0.10  0.000007  (-0.001951  0.001197 -0.001306)
 34:    851.01   0.000226    1.14  0.000083  ( 0.009008  0.000362 -0.001307)
 35:    891.24   0.004950   25.02  0.001733  (-0.000693 -0.016831 -0.038073)
 36:    912.98   0.000008    0.04  0.000003  ( 0.000039 -0.001290 -0.001040)
 37:    947.66   0.000555    2.80  0.000183  ( 0.000676  0.005461  0.012346)
 38:    948.94   0.000591    2.99  0.000194  (-0.001325 -0.005766 -0.012629)
 39:    955.34   0.000968    4.89  0.000316  ( 0.009031  0.014303 -0.005489)
 40:    957.15   0.000589    2.98  0.000192  ( 0.000560 -0.012763  0.005377)
 41:    970.67   0.000024    0.12  0.000008  (-0.000485 -0.001027 -0.002522)
 42:    974.62   0.000030    0.15  0.000009  ( 0.000086  0.001929  0.002392)
 43:   1022.41   0.001493    7.54  0.000456  ( 0.021342 -0.000258 -0.000216)
 44:   1039.61   0.000087    0.44  0.000026  ( 0.003402 -0.003614  0.001217)
 45:   1050.57   0.000164    0.83  0.000049  ( 0.006577 -0.001690  0.001595)
 46:   1052.07   0.000007    0.04  0.000002  ( 0.000532 -0.000849 -0.001046)
 47:   1054.63   0.000070    0.35  0.000021  ( 0.001391  0.002592  0.003467)
 48:   1057.15   0.000100    0.51  0.000030  (-0.000309 -0.002310 -0.004919)
 49:   1126.45   0.005277   26.67  0.001462  (-0.009727 -0.033726  0.015157)
 50:   1147.52   0.017184   86.84  0.004673  (-0.068156  0.005026 -0.001610)
 51:   1220.86   0.002661   13.45  0.000680  (-0.013296  0.020225 -0.009714)
 52:   1234.42   0.073238  370.11  0.018515  (-0.136048  0.000765  0.002215)
 53:   1264.15   0.001339    6.77  0.000330  ( 0.017238 -0.005625  0.001305)
 54:   1272.62   0.002472   12.49  0.000606  (-0.021858 -0.009875  0.005565)
 55:   1279.50   0.000289    1.46  0.000070  ( 0.000796 -0.003547 -0.007563)
 56:   1281.09   0.006494   32.82  0.001582  ( 0.004355  0.015669  0.036294)
 57:   1304.66   0.000097    0.49  0.000023  ( 0.004687  0.000689 -0.000891)
 58:   1360.16   0.005042   25.48  0.001157  (-0.000379 -0.031102  0.013762)
 59:   1395.78   0.004290   21.68  0.000959  ( 0.000937  0.010151  0.029246)
 60:   1396.49   0.006083   30.74  0.001359  ( 0.000863  0.011908  0.034881)
 61:   1398.44   0.008046   40.66  0.001795  (-0.014708 -0.038127  0.011196)
 62:   1402.20   0.004756   24.04  0.001059  ( 0.009630 -0.028475  0.012447)
 63:   1412.04   0.001543    7.80  0.000341  ( 0.018377 -0.001808  0.000206)
 64:   1413.82   0.001501    7.58  0.000331  ( 0.016722  0.006560 -0.002929)
 65:   1442.80   0.000086    0.43  0.000019  ( 0.000178 -0.001052 -0.004172)
 66:   1443.72   0.000103    0.52  0.000022  ( 0.001082 -0.000280 -0.004575)
 67:   1445.58   0.000347    1.75  0.000075  ( 0.008348  0.002204 -0.000553)
 68:   1446.54   0.000023    0.12  0.000005  (-0.000870 -0.001497  0.001418)
 69:   1448.65   0.000040    0.20  0.000009  ( 0.000408 -0.000519 -0.002859)
 70:   1451.36   0.000214    1.08  0.000046  ( 0.002660  0.005049 -0.003678)
 71:   1453.91   0.000578    2.92  0.000124  ( 0.010845  0.001886 -0.001726)
 72:   1460.34   0.005504   27.81  0.001176  ( 0.001959  0.032244 -0.011515)
 73:   1468.55   0.001514    7.65  0.000322  ( 0.002429  0.004308  0.017238)
 74:   1470.97   0.001765    8.92  0.000375  (-0.000567 -0.007630 -0.017776)
 75:   1474.31   0.000345    1.74  0.000073  ( 0.007564 -0.003035  0.002559)
 76:   1480.19   0.002084   10.53  0.000439  ( 0.020329 -0.004724 -0.001919)
 77:   1481.17   0.000589    2.98  0.000124  (-0.005900 -0.008423  0.004292)
 78:   1489.98   0.000144    0.73  0.000030  ( 0.005194  0.001598 -0.000807)
 79:   1633.66   0.030491  154.09  0.005824  ( 0.076072  0.005246 -0.003138)
 80:   1648.08   0.005420   27.39  0.001026  (-0.024955  0.018622 -0.007528)
 81:   3070.60   0.003211   16.23  0.000326  (-0.000339  0.004955  0.017368)
 82:   3072.08   0.004533   22.91  0.000460  (-0.005894  0.020583  0.001430)
 83:   3072.17   0.001241    6.27  0.000126  ( 0.004127  0.009074 -0.005171)
 84:   3073.03   0.003016   15.24  0.000306  (-0.003523  0.000416 -0.017137)
 85:   3076.82   0.000447    2.26  0.000045  (-0.005891 -0.001218 -0.003030)
 86:   3076.91   0.000534    2.70  0.000054  (-0.004109 -0.005434  0.002777)
 87:   3175.67   0.000477    2.41  0.000047  ( 0.000563 -0.000892 -0.006766)
 88:   3175.82   0.002373   11.99  0.000233  ( 0.001823  0.007180  0.013354)
 89:   3177.15   0.004994   25.24  0.000491  (-0.010831 -0.017530  0.008120)
 90:   3178.78   0.002618   13.23  0.000257  ( 0.003754 -0.006241  0.014281)
 91:   3179.62   0.002121   10.72  0.000208  ( 0.000204 -0.005363 -0.013392)
 92:   3180.91   0.003239   16.37  0.000318  ( 0.004828 -0.017081 -0.001631)
 93:   3183.75   0.001669    8.43  0.000164  ( 0.003383 -0.005055 -0.011251)
 94:   3184.40   0.000866    4.38  0.000085  ( 0.002093  0.004756  0.007607)
 95:   3184.86   0.001398    7.07  0.000137  ( 0.011496  0.001767  0.001312)
 96:   3185.44   0.001478    7.47  0.000145  ( 0.004078  0.010125 -0.005060)
 97:   3189.71   0.005429   27.44  0.000531  ( 0.022547  0.004001 -0.002609)
 98:   3190.28   0.004191   21.18  0.000410  ( 0.017172 -0.009530  0.004929)
 99:   3312.64   0.005634   28.47  0.000531  ( 0.020857 -0.009050  0.003726)
100:   3323.30   0.011654   58.89  0.001094  ( 0.004090  0.030392 -0.012406)
101:   3337.09   0.003311   16.73  0.000310  ( 0.009993  0.013357 -0.005598)

--------------------------
THERMOCHEMISTRY AT 298.15K
--------------------------

Temperature         ... 298.15 K
Pressure            ... 1.00 atm
Total Mass          ... 181.30 AMU

Throughout the following assumptions are being made:
  (1) The electronic state is orbitally nondegenerate
  (2) There are no thermally accessible electronically excited states
  (3) Hindered rotations indicated by low frequency modes are not
      treated as such but are treated as vibrations and this may
      cause some error
  (4) All equations used are the standard statistical mechanics
      equations for an ideal gas
  (5) All vibrations are strictly harmonic

freq.      29.63  E(vib)   ...       0.55
freq.      35.28  E(vib)   ...       0.54
freq.      96.37  E(vib)   ...       0.47
freq.     140.00  E(vib)   ...       0.41
freq.     158.60  E(vib)   ...       0.39
freq.     228.87  E(vib)   ...       0.32
freq.     234.68  E(vib)   ...       0.32
freq.     262.12  E(vib)   ...       0.29
freq.     266.40  E(vib)   ...       0.29
freq.     273.89  E(vib)   ...       0.28
freq.     299.49  E(vib)   ...       0.26
freq.     328.38  E(vib)   ...       0.24
freq.     333.07  E(vib)   ...       0.24
freq.     340.48  E(vib)   ...       0.23
freq.     346.14  E(vib)   ...       0.23
freq.     363.98  E(vib)   ...       0.22
freq.     370.42  E(vib)   ...       0.21
freq.     410.25  E(vib)   ...       0.19
freq.     443.49  E(vib)   ...       0.17
freq.     470.74  E(vib)   ...       0.15
freq.     475.11  E(vib)   ...       0.15
freq.     520.20  E(vib)   ...       0.13
freq.     574.55  E(vib)   ...       0.11
freq.     636.01  E(vib)   ...       0.09
freq.     680.42  E(vib)   ...       0.08
freq.     684.97  E(vib)   ...       0.07
freq.     758.49  E(vib)   ...       0.06
freq.     847.04  E(vib)   ...       0.04
freq.     851.01  E(vib)   ...       0.04
freq.     891.24  E(vib)   ...       0.04
freq.     912.98  E(vib)   ...       0.03
freq.     947.66  E(vib)   ...       0.03
freq.     948.94  E(vib)   ...       0.03
freq.     955.34  E(vib)   ...       0.03
freq.     957.15  E(vib)   ...       0.03
freq.     970.67  E(vib)   ...       0.03
freq.     974.62  E(vib)   ...       0.03
freq.    1022.41  E(vib)   ...       0.02
freq.    1039.61  E(vib)   ...       0.02
freq.    1050.57  E(vib)   ...       0.02
freq.    1052.07  E(vib)   ...       0.02
freq.    1054.63  E(vib)   ...       0.02
freq.    1057.15  E(vib)   ...       0.02
freq.    1126.45  E(vib)   ...       0.01
freq.    1147.52  E(vib)   ...       0.01
freq.    1220.86  E(vib)   ...       0.01
freq.    1234.42  E(vib)   ...       0.01
freq.    1264.15  E(vib)   ...       0.01
freq.    1272.62  E(vib)   ...       0.01
freq.    1279.50  E(vib)   ...       0.01
freq.    1281.09  E(vib)   ...       0.01
freq.    1304.66  E(vib)   ...       0.01
freq.    1360.16  E(vib)   ...       0.01
freq.    1395.78  E(vib)   ...       0.00
freq.    1396.49  E(vib)   ...       0.00
freq.    1398.44  E(vib)   ...       0.00
freq.    1402.20  E(vib)   ...       0.00
freq.    1412.04  E(vib)   ...       0.00
freq.    1413.82  E(vib)   ...       0.00
freq.    1442.80  E(vib)   ...       0.00
freq.    1443.72  E(vib)   ...       0.00
freq.    1445.58  E(vib)   ...       0.00
freq.    1446.54  E(vib)   ...       0.00
freq.    1448.65  E(vib)   ...       0.00
freq.    1451.36  E(vib)   ...       0.00
freq.    1453.91  E(vib)   ...       0.00
freq.    1460.34  E(vib)   ...       0.00
freq.    1468.55  E(vib)   ...       0.00
freq.    1470.97  E(vib)   ...       0.00
freq.    1474.31  E(vib)   ...       0.00
freq.    1480.19  E(vib)   ...       0.00
freq.    1481.17  E(vib)   ...       0.00
freq.    1489.98  E(vib)   ...       0.00
freq.    1633.66  E(vib)   ...       0.00
freq.    1648.08  E(vib)   ...       0.00
freq.    3070.60  E(vib)   ...       0.00
freq.    3072.08  E(vib)   ...       0.00
freq.    3072.17  E(vib)   ...       0.00
freq.    3073.03  E(vib)   ...       0.00
freq.    3076.82  E(vib)   ...       0.00
freq.    3076.91  E(vib)   ...       0.00
freq.    3175.67  E(vib)   ...       0.00
freq.    3175.82  E(vib)   ...       0.00
freq.    3177.15  E(vib)   ...       0.00
freq.    3178.78  E(vib)   ...       0.00
freq.    3179.62  E(vib)   ...       0.00
freq.    3180.91  E(vib)   ...       0.00
freq.    3183.75  E(vib)   ...       0.00
freq.    3184.40  E(vib)   ...       0.00
freq.    3184.86  E(vib)   ...       0.00
freq.    3185.44  E(vib)   ...       0.00
freq.    3189.71  E(vib)   ...       0.00
freq.    3190.28  E(vib)   ...       0.00
freq.    3312.64  E(vib)   ...       0.00
freq.    3323.30  E(vib)   ...       0.00
freq.    3337.09  E(vib)   ...       0.00

------------
INNER ENERGY
------------

The inner energy is: U= E(el) + E(ZPE) + E(vib) + E(rot) + E(trans)
    E(el)   - is the total energy from the electronic structure calculation
              = E(kin-el) + E(nuc-el) + E(el-el) + E(nuc-nuc)
    E(ZPE)  - the the zero temperature vibrational energy from the frequency calculation
    E(vib)  - the the finite temperature correction to E(ZPE) due to population
              of excited vibrational states
    E(rot)  - is the rotational thermal energy
    E(trans)- is the translational thermal energy

Summary of contributions to the inner energy U:
Electronic energy                ...   -540.69349837 Eh
Zero point energy                ...      0.31107495 Eh     195.20 kcal/mol
Thermal vibrational correction   ...      0.01166856 Eh       7.32 kcal/mol
Thermal rotational correction    ...      0.00141627 Eh       0.89 kcal/mol
Thermal translational correction ...      0.00141627 Eh       0.89 kcal/mol
-----------------------------------------------------------------------
Total thermal energy                   -540.36792232 Eh

Summary of corrections to the electronic energy:
(perhaps to be used in another calculation)
Total thermal correction                  0.01450110 Eh       9.10 kcal/mol
Non-thermal (ZPE) correction              0.31107495 Eh     195.20 kcal/mol
-----------------------------------------------------------------------
Total correction                          0.32557605 Eh     204.30 kcal/mol

--------
ENTHALPY
--------

The enthalpy is H = U + kB*T
                kB is Boltzmann's constant
Total free energy                 ...   -540.36792232 Eh
Thermal Enthalpy correction       ...      0.00094421 Eh       0.59 kcal/mol
-----------------------------------------------------------------------
Total Enthalpy                    ...   -540.36697811 Eh

Note: Only C1 symmetry has been detected, increase convergence thresholds
      if your molecule has a higher symmetry. Symmetry factor of 1.0 is
      used for the rotational entropy correction.

Rotational constants in cm-1:     0.055162     0.014871     0.013874

                             ****ORCA TERMINATED NORMALLY****
TOTAL RUN TIME: 0 days 3 hours 29 minutes 1 seconds 25 msec
