                         Program Version 5.0.4 -  RELEASE  -
|  1> # ORCA 5.0.4 - /users/bwb16179/postgrad/2024_03/DFT_Crest_Conformers/Opt/prot/5_prot_aq_4.inp # write input file
|  2> # Basic Mode
|  3> #
|  4> ! Opt Freq wB97X Def2-SVP D4 SlowConv TightSCF Defgrid2 Def2/J RIJCOSX CPCM(Water)
|  5>
|  6>
|  7>
|  8> %maxcore 4500
|  9>
| 10> %geom
| 11> Maxiter 150
| 12> END
| 13>
| 14> * xyzfile 1 1 5_prot_aq_4.xyz
| 15>
| 16>                          ****END OF INPUT****
 Total Charge           Charge          ....    1
 Multiplicity           Mult            ....    1
 Number of Electrons    NEL             ....  100
Dispersion correction           -0.005614560
FINAL SINGLE POINT ENERGY      -540.689132661315
Dispersion correction            ... Starting D4
Dispersion correction           -0.005599233
FINAL SINGLE POINT ENERGY      -540.693166820317
Dispersion correction            ... Starting D4
Dispersion correction           -0.005596245
FINAL SINGLE POINT ENERGY      -540.693364529779
Dispersion correction            ... Starting D4
FINAL SINGLE POINT ENERGY      -540.693464098112
FINAL SINGLE POINT ENERGY      -540.693483472208
FINAL SINGLE POINT ENERGY      -540.693515238527
FINAL SINGLE POINT ENERGY      -540.693573789521
FINAL SINGLE POINT ENERGY      -540.693642910255
FINAL SINGLE POINT ENERGY      -540.693782788462
FINAL SINGLE POINT ENERGY      -540.693892550138
FINAL SINGLE POINT ENERGY      -540.694046360245
FINAL SINGLE POINT ENERGY      -540.694120785043
FINAL SINGLE POINT ENERGY      -540.694196070750
FINAL SINGLE POINT ENERGY      -540.694261500946
FINAL SINGLE POINT ENERGY      -540.694300646453
FINAL SINGLE POINT ENERGY      -540.694322365990
Dispersion correction           -0.005587746
FINAL SINGLE POINT ENERGY      -540.694330932550
Dispersion correction            ... Starting D4
Dispersion correction           -0.005587377
FINAL SINGLE POINT ENERGY      -540.694330968918
Dispersion correction            ... Starting D4
                    ***********************HURRAY********************

CARTESIAN COORDINATES (ANGSTROEM)
---------------------------------
  N     -1.087191   -0.228498   -0.020142
  C     -0.001350    0.543676   -0.008232
  N      1.087878   -0.222903   -0.041970
  H     -0.003651    1.629937    0.022518
  C      0.682815   -1.540881   -0.076184
  C     -0.676078   -1.544407   -0.062725
  C     -2.515022    0.220419   -0.001332
  C      2.513548    0.233365   -0.050683
  C     -2.564672    1.743828    0.063358
  C     -3.179701   -0.382033    1.237273
  C     -3.176595   -0.276751   -1.287465
  C      3.156196   -0.272269   -1.343028
  C      3.201846   -0.354347    1.182240
  C      2.556305    1.757465   -0.000711
  H      1.385042   -2.371175   -0.109624
  H     -1.374525   -2.378384   -0.082113
  H     -2.088464    2.130335    0.977533
  H     -3.619551    2.051577    0.078722
  H     -2.093085    2.206581   -0.817185
  H     -3.158895   -1.374950   -1.355303
  H     -2.672381    0.141935   -2.171672
  H     -4.227617    0.047021   -1.299890
  H      2.709314   -0.009432    2.104069
  H      4.249660   -0.020785    1.201201
  H      3.197434   -1.454533    1.166394
  H     -3.175302   -1.481986    1.208658
  H     -4.227124   -0.049454    1.279671
  H     -2.669813   -0.047705    2.153555
  H      4.204442    0.058843   -1.376913
  H      2.633388    0.133840   -2.222294
  H      3.145674   -1.371165   -1.399498
  H      2.066281    2.210943   -0.876036
  H      3.609860    2.070144   -0.007721
  H      2.095748    2.149418    0.919160

 Multiplicity           Mult            ....    1
 Number of Electrons    NEL             ....  100
 Basis Dimension        Dim             ....  287

ORBITAL ENERGIES
----------------

  NO   OCC          E(Eh)            E(eV)
   0   2.0000     -14.507880      -394.7795
   1   2.0000     -14.507830      -394.7781
   2   2.0000     -10.383626      -282.5528
   3   2.0000     -10.345745      -281.5220
   4   2.0000     -10.345719      -281.5213
   5   2.0000     -10.333247      -281.1820
   6   2.0000     -10.332661      -281.1660
   7   2.0000     -10.276324      -279.6330
   8   2.0000     -10.276310      -279.6326
   9   2.0000     -10.273880      -279.5665
  10   2.0000     -10.273874      -279.5663
  11   2.0000     -10.273848      -279.5656
  12   2.0000     -10.273840      -279.5654
  13   2.0000      -1.213241       -33.0140
  14   2.0000      -1.095223       -29.8025
  15   2.0000      -0.980220       -26.6732
  16   2.0000      -0.932766       -25.3818
  17   2.0000      -0.921466       -25.0744
  18   2.0000      -0.832596       -22.6561
  19   2.0000      -0.825456       -22.4618
  20   2.0000      -0.823435       -22.4068
  21   2.0000      -0.822777       -22.3889
  22   2.0000      -0.792126       -21.5549
  23   2.0000      -0.764780       -20.8107
  24   2.0000      -0.724673       -19.7194
  25   2.0000      -0.702604       -19.1188
  26   2.0000      -0.644201       -17.5296
  27   2.0000      -0.627788       -17.0830
  28   2.0000      -0.605509       -16.4767
  29   2.0000      -0.587274       -15.9805
  30   2.0000      -0.582848       -15.8601
  31   2.0000      -0.577204       -15.7065
  32   2.0000      -0.576632       -15.6909
  33   2.0000      -0.555391       -15.1130
  34   2.0000      -0.554245       -15.0818
  35   2.0000      -0.545604       -14.8466
  36   2.0000      -0.518989       -14.1224
  37   2.0000      -0.501747       -13.6532
  38   2.0000      -0.499242       -13.5851
  39   2.0000      -0.497158       -13.5284
  40   2.0000      -0.495989       -13.4965
  41   2.0000      -0.487183       -13.2569
  42   2.0000      -0.480254       -13.0684
  43   2.0000      -0.480032       -13.0623
  44   2.0000      -0.467466       -12.7204
  45   2.0000      -0.454159       -12.3583
  46   2.0000      -0.453328       -12.3357
  47   2.0000      -0.451163       -12.2768
  48   2.0000      -0.409937       -11.1550
  49   2.0000      -0.375196       -10.2096
  50   0.0000       0.063173         1.7190
  51   0.0000       0.093610         2.5473
  52   0.0000       0.131018         3.5652
  53   0.0000       0.143161         3.8956
  54   0.0000       0.164301         4.4709

MULLIKEN ATOMIC CHARGES
-----------------------
   0 N :   -0.179637
   1 C :    0.217825
   2 N :   -0.179560
   3 H :    0.128113
   4 C :    0.057648
   5 C :    0.057742
   6 C :   -0.239500
   7 C :   -0.239364
   8 C :    0.001654
   9 C :    0.035833
  10 C :    0.037694
  11 C :    0.037041
  12 C :    0.036435
  13 C :    0.001612
  14 H :    0.106352
  15 H :    0.106317
  16 H :    0.060478
  17 H :    0.064285
  18 H :    0.060308
  19 H :    0.050090
  20 H :    0.052479
  21 H :    0.057963
  22 H :    0.052788
  23 H :    0.058002
  24 H :    0.050237
  25 H :    0.050305
  26 H :    0.058098
  27 H :    0.052890
  28 H :    0.058055
  29 H :    0.052602
  30 H :    0.050146
  31 H :    0.060396
  32 H :    0.064217
  33 H :    0.060460
Sum of atomic charges:    1.0000000

LOEWDIN ATOMIC CHARGES
----------------------
   0 N :    0.097055
   1 C :    0.120140
   2 N :    0.097111
   3 H :    0.063261
   4 C :    0.017692
   5 C :    0.017731
   6 C :    0.017064
   7 C :    0.017113
   8 C :   -0.049049
   9 C :   -0.044996
  10 C :   -0.044850
  11 C :   -0.044883
  12 C :   -0.044929
  13 C :   -0.049080
  14 H :    0.059817
  15 H :    0.059828
  16 H :    0.038090
  17 H :    0.048653
  18 H :    0.037888
  19 H :    0.034757
  20 H :    0.036888
  21 H :    0.043636
  22 H :    0.036992
  23 H :    0.043739
  24 H :    0.034762
  25 H :    0.034764
  26 H :    0.043772
  27 H :    0.037021
  28 H :    0.043667
  29 H :    0.036925
  30 H :    0.034756
  31 H :    0.037951
  32 H :    0.048661
  33 H :    0.038056

  Mayer bond orders larger than 0.100000
B(  0-N ,  1-C ) :   1.3560 B(  0-N ,  5-C ) :   1.1659 B(  0-N ,  6-C ) :   0.8099
B(  1-C ,  2-N ) :   1.3561 B(  1-C ,  3-H ) :   0.9584 B(  2-N ,  4-C ) :   1.1660
B(  2-N ,  7-C ) :   0.8098 B(  4-C ,  5-C ) :   1.6207 B(  4-C , 14-H ) :   0.9824
B(  5-C , 15-H ) :   0.9824 B(  6-C ,  8-C ) :   1.0649 B(  6-C ,  9-C ) :   1.0388
B(  6-C , 10-C ) :   1.0380 B(  7-C , 11-C ) :   1.0381 B(  7-C , 12-C ) :   1.0385
B(  7-C , 13-C ) :   1.0649 B(  8-C , 16-H ) :   0.9570 B(  8-C , 17-H ) :   0.9613
B(  8-C , 18-H ) :   0.9565 B(  9-C , 25-H ) :   0.9613 B(  9-C , 26-H ) :   0.9691
B(  9-C , 27-H ) :   0.9648 B( 10-C , 19-H ) :   0.9611 B( 10-C , 20-H ) :   0.9647
B( 10-C , 21-H ) :   0.9694 B( 11-C , 28-H ) :   0.9693 B( 11-C , 29-H ) :   0.9648
B( 11-C , 30-H ) :   0.9612 B( 12-C , 22-H ) :   0.9648 B( 12-C , 23-H ) :   0.9692
B( 12-C , 24-H ) :   0.9612 B( 13-C , 31-H ) :   0.9567 B( 13-C , 32-H ) :   0.9613
B( 13-C , 33-H ) :   0.9569

Dispersion correction           -0.005587423
FINAL SINGLE POINT ENERGY      -540.694330895272

DIPOLE MOMENT
-------------
                                X             Y             Z
Electronic contribution:      0.00922      -4.01115      -0.04594
Nuclear contribution   :     -0.00874       4.05659       0.04530
                        -----------------------------------------
Total Dipole Moment    :      0.00047       0.04544      -0.00064
                        -----------------------------------------
Magnitude (a.u.)       :      0.04545
Magnitude (Debye)      :      0.11552

Dispersion correction in the Hessian             ... Starting D4

VIBRATIONAL FREQUENCIES
-----------------------

Scaling factor for frequencies =  1.000000000  (already applied!)

   0:         0.00 cm**-1
   1:         0.00 cm**-1
   2:         0.00 cm**-1
   3:         0.00 cm**-1
   4:         0.00 cm**-1
   5:         0.00 cm**-1
   6:        26.47 cm**-1
   7:        39.34 cm**-1
   8:       120.46 cm**-1
   9:       145.70 cm**-1
  10:       150.48 cm**-1
  11:       226.48 cm**-1
  12:       232.20 cm**-1
  13:       258.55 cm**-1
  14:       264.64 cm**-1
  15:       272.43 cm**-1
  16:       280.30 cm**-1
  17:       332.54 cm**-1
  18:       336.85 cm**-1
  19:       343.75 cm**-1
  20:       354.17 cm**-1
  21:       365.37 cm**-1
  22:       370.91 cm**-1
  23:       401.44 cm**-1
  24:       444.34 cm**-1
  25:       468.83 cm**-1
  26:       470.20 cm**-1
  27:       520.46 cm**-1
  28:       578.14 cm**-1
  29:       639.58 cm**-1
  30:       679.13 cm**-1
  31:       691.91 cm**-1
  32:       773.72 cm**-1
  33:       845.78 cm**-1
  34:       849.63 cm**-1
  35:       891.91 cm**-1
  36:       922.49 cm**-1
  37:       948.97 cm**-1
  38:       949.12 cm**-1
  39:       958.70 cm**-1
  40:       959.32 cm**-1
  41:       969.41 cm**-1
  42:       969.73 cm**-1
  43:      1022.99 cm**-1
  44:      1040.36 cm**-1
  45:      1050.06 cm**-1
  46:      1051.02 cm**-1
  47:      1054.47 cm**-1
  48:      1055.30 cm**-1
  49:      1124.80 cm**-1
  50:      1150.49 cm**-1
  51:      1222.78 cm**-1
  52:      1236.78 cm**-1
  53:      1265.65 cm**-1
  54:      1269.62 cm**-1
  55:      1277.79 cm**-1
  56:      1279.90 cm**-1
  57:      1303.84 cm**-1
  58:      1356.51 cm**-1
  59:      1396.32 cm**-1
  60:      1396.54 cm**-1
  61:      1401.57 cm**-1
  62:      1402.02 cm**-1
  63:      1413.63 cm**-1
  64:      1413.83 cm**-1
  65:      1441.99 cm**-1
  66:      1442.58 cm**-1
  67:      1442.67 cm**-1
  68:      1448.05 cm**-1
  69:      1448.16 cm**-1
  70:      1450.59 cm**-1
  71:      1454.31 cm**-1
  72:      1462.27 cm**-1
  73:      1471.91 cm**-1
  74:      1472.29 cm**-1
  75:      1476.29 cm**-1
  76:      1478.90 cm**-1
  77:      1479.43 cm**-1
  78:      1489.35 cm**-1
  79:      1636.49 cm**-1
  80:      1653.96 cm**-1
  81:      3070.92 cm**-1
  82:      3071.14 cm**-1
  83:      3072.32 cm**-1
  84:      3072.43 cm**-1
  85:      3075.97 cm**-1
  86:      3076.05 cm**-1
  87:      3174.37 cm**-1
  88:      3174.67 cm**-1
  89:      3178.47 cm**-1
  90:      3178.71 cm**-1
  91:      3179.51 cm**-1
  92:      3179.77 cm**-1
  93:      3184.44 cm**-1
  94:      3184.45 cm**-1
  95:      3185.00 cm**-1
  96:      3185.17 cm**-1
  97:      3189.69 cm**-1
  98:      3189.91 cm**-1
  99:      3306.32 cm**-1
 100:      3323.40 cm**-1
 101:      3336.31 cm**-1

IR SPECTRUM
-----------

 Mode   freq       eps      Int      T**2         TX        TY        TZ
       cm**-1   L/(mol*cm) km/mol    a.u.
----------------------------------------------------------------------------
  6:     26.47   0.000000    0.00  0.000001  (-0.000386  0.000003 -0.000931)
  7:     39.34   0.000004    0.02  0.000029  ( 0.000134  0.000068 -0.005407)
  8:    120.46   0.000014    0.07  0.000036  (-0.000327 -0.000051  0.005981)
  9:    145.70   0.000027    0.14  0.000058  ( 0.000003 -0.007613  0.000002)
 10:    150.48   0.000000    0.00  0.000001  ( 0.000257 -0.000724 -0.000128)
 11:    226.48   0.000006    0.03  0.000008  ( 0.000064  0.000776 -0.002693)
 12:    232.20   0.000001    0.00  0.000001  ( 0.000238 -0.000498 -0.000699)
 13:    258.55   0.000010    0.05  0.000012  (-0.003360 -0.000755 -0.000220)
 14:    264.64   0.000014    0.07  0.000017  (-0.000427  0.004051 -0.000085)
 15:    272.43   0.000013    0.07  0.000015  ( 0.000006  0.003869  0.000258)
 16:    280.30   0.000003    0.01  0.000003  ( 0.001677 -0.000570 -0.000389)
 17:    332.54   0.000002    0.01  0.000002  (-0.000244  0.000106  0.001325)
 18:    336.85   0.000007    0.03  0.000006  (-0.000087  0.000049  0.002463)
 19:    343.75   0.000107    0.54  0.000097  (-0.000006  0.001307 -0.009775)
 20:    354.17   0.000025    0.12  0.000022  (-0.000078  0.004498  0.001165)
 21:    365.37   0.000000    0.00  0.000000  ( 0.000175 -0.000033 -0.000062)
 22:    370.91   0.000002    0.01  0.000002  (-0.001300 -0.000086 -0.000454)
 23:    401.44   0.000003    0.01  0.000002  (-0.001430  0.000105 -0.000174)
 24:    444.34   0.000011    0.06  0.000008  ( 0.000040  0.000157 -0.002836)
 25:    468.83   0.000001    0.00  0.000001  ( 0.000723 -0.000111 -0.000020)
 26:    470.20   0.000025    0.13  0.000017  ( 0.000010  0.004071  0.000463)
 27:    520.46   0.000093    0.47  0.000056  (-0.007439 -0.000059 -0.000518)
 28:    578.14   0.000156    0.79  0.000084  (-0.000023  0.009168  0.000537)
 29:    639.58   0.001340    6.77  0.000654  (-0.025557 -0.000097  0.000766)
 30:    679.13   0.013927   70.38  0.006400  ( 0.000987 -0.002152  0.079962)
 31:    691.91   0.000000    0.00  0.000000  (-0.000322  0.000105 -0.000067)
 32:    773.72   0.008520   43.06  0.003436  ( 0.000205 -0.001374  0.058604)
 33:    845.78   0.000020    0.10  0.000007  (-0.000070 -0.002656  0.000545)
 34:    849.63   0.000137    0.69  0.000050  (-0.007069  0.000064  0.000452)
 35:    891.91   0.006112   30.89  0.002138  ( 0.001062 -0.001418  0.046208)
 36:    922.49   0.000001    0.01  0.000000  (-0.000591 -0.000270  0.000026)
 37:    948.97   0.000937    4.74  0.000308  (-0.000130  0.001053 -0.017525)
 38:    949.12   0.000120    0.61  0.000040  (-0.000084 -0.000191  0.006286)
 39:    958.70   0.001415    7.15  0.000461  ( 0.000090 -0.021373 -0.001970)
 40:    959.32   0.000027    0.14  0.000009  (-0.002484 -0.001604 -0.000124)
 41:    969.41   0.000064    0.32  0.000021  ( 0.000239 -0.002957  0.003422)
 42:    969.73   0.000005    0.02  0.000002  (-0.000010  0.001007 -0.000732)
 43:   1022.99   0.001427    7.21  0.000435  ( 0.020863 -0.000042 -0.000295)
 44:   1040.36   0.000135    0.68  0.000040  (-0.000131 -0.006351 -0.000328)
 45:   1050.06   0.000037    0.19  0.000011  (-0.000832 -0.003064 -0.000959)
 46:   1051.02   0.000115    0.58  0.000034  (-0.005833  0.000410  0.000187)
 47:   1054.47   0.000020    0.10  0.000006  (-0.000093  0.000359 -0.002430)
 48:   1055.30   0.000178    0.90  0.000053  ( 0.000095 -0.000040 -0.007261)
 49:   1124.80   0.004492   22.70  0.001246  ( 0.000399 -0.035270 -0.001426)
 50:   1150.49   0.018315   92.56  0.004968  ( 0.070480  0.000298 -0.000705)
 51:   1222.78   0.001354    6.84  0.000346  (-0.000084  0.018589 -0.000091)
 52:   1236.78   0.080752  408.09  0.020375  (-0.142736 -0.000422  0.001262)
 53:   1265.65   0.000018    0.09  0.000004  ( 0.002071 -0.000193 -0.000022)
 54:   1269.62   0.000668    3.38  0.000164  (-0.000110  0.012791 -0.000782)
 55:   1277.79   0.000013    0.07  0.000003  ( 0.001798  0.000069 -0.000013)
 56:   1279.90   0.006432   32.50  0.001568  (-0.000181 -0.000619  0.039595)
 57:   1303.84   0.000025    0.12  0.000006  ( 0.002361 -0.000001  0.000583)
 58:   1356.51   0.004250   21.48  0.000978  ( 0.000103 -0.031264 -0.000631)
 59:   1396.32   0.000119    0.60  0.000027  ( 0.000060 -0.000836  0.005088)
 60:   1396.54   0.010601   53.57  0.002369  ( 0.000502  0.002913  0.048581)
 61:   1401.57   0.000410    2.07  0.000091  ( 0.006776  0.006634 -0.001118)
 62:   1402.02   0.013215   66.78  0.002941  ( 0.001164 -0.054202  0.001462)
 63:   1413.63   0.002347   11.86  0.000518  ( 0.022747  0.000526 -0.000600)
 64:   1413.83   0.000309    1.56  0.000068  (-0.000236  0.008244  0.000303)
 65:   1441.99   0.000038    0.19  0.000008  ( 0.000086  0.000816 -0.002751)
 66:   1442.58   0.000083    0.42  0.000018  ( 0.003299  0.001084 -0.002444)
 67:   1442.67   0.000146    0.74  0.000032  ( 0.005440 -0.000521  0.001315)
 68:   1448.05   0.000100    0.51  0.000022  (-0.000587  0.002930  0.003554)
 69:   1448.16   0.000018    0.09  0.000004  (-0.001742  0.000023 -0.000933)
 70:   1450.59   0.000229    1.16  0.000049  (-0.000608 -0.006976  0.000436)
 71:   1454.31   0.001148    5.80  0.000246  ( 0.015693 -0.000065 -0.000153)
 72:   1462.27   0.004230   21.37  0.000903  ( 0.000023  0.030007 -0.001482)
 73:   1471.91   0.000376    1.90  0.000080  ( 0.001241  0.000354 -0.008837)
 74:   1472.29   0.003177   16.06  0.000673  ( 0.001157  0.001650  0.025872)
 75:   1476.29   0.000077    0.39  0.000016  (-0.003921  0.000408  0.000851)
 76:   1478.90   0.000955    4.82  0.000201  (-0.001998  0.014019 -0.000964)
 77:   1479.43   0.001859    9.39  0.000392  (-0.019735 -0.001417  0.000775)
 78:   1489.35   0.000046    0.23  0.000010  ( 0.000188  0.003054 -0.000593)
 79:   1636.49   0.037485  189.43  0.007148  ( 0.084542  0.000257 -0.000746)
 80:   1653.96   0.002842   14.36  0.000536  (-0.000272  0.023142  0.000811)
 81:   3070.92   0.002613   13.21  0.000266  (-0.007918  0.014200  0.001091)
 82:   3071.14   0.003197   16.16  0.000325  (-0.007082 -0.016507 -0.001497)
 83:   3072.32   0.003120   15.77  0.000317  (-0.000308 -0.001550  0.017732)
 84:   3072.43   0.003514   17.76  0.000357  ( 0.000525 -0.001128  0.018851)
 85:   3075.97   0.000425    2.15  0.000043  ( 0.006433  0.001295 -0.000139)
 86:   3076.05   0.000253    1.28  0.000026  (-0.002693  0.004279 -0.000295)
 87:   3174.37   0.002728   13.78  0.000268  (-0.000356  0.000193 -0.016370)
 88:   3174.67   0.001170    5.91  0.000115  ( 0.000143  0.000338 -0.010717)
 89:   3178.47   0.001832    9.26  0.000180  ( 0.000784  0.004533 -0.012599)
 90:   3178.71   0.001708    8.63  0.000168  ( 0.001329 -0.004673  0.012005)
 91:   3179.51   0.004001   20.22  0.000393  ( 0.005094  0.018928  0.002910)
 92:   3179.77   0.004429   22.38  0.000435  (-0.004897  0.019968  0.003461)
 93:   3184.44   0.001718    8.68  0.000168  ( 0.000182  0.000465 -0.012965)
 94:   3184.45   0.000095    0.48  0.000009  ( 0.000601 -0.000475 -0.002956)
 95:   3185.00   0.000805    4.07  0.000079  (-0.001568 -0.008681 -0.001033)
 96:   3185.17   0.001218    6.15  0.000119  (-0.002285  0.010677  0.000269)
 97:   3189.69   0.007530   38.05  0.000737  ( 0.026756  0.004540 -0.000423)
 98:   3189.91   0.002801   14.15  0.000274  ( 0.014997 -0.007007  0.000062)
 99:   3306.32   0.004755   24.03  0.000449  ( 0.021175  0.000578 -0.000223)
100:   3323.40   0.006912   34.93  0.000649  ( 0.000539 -0.025456 -0.000843)
101:   3336.31   0.007914   39.99  0.000740  ( 0.000007  0.027193  0.000872)

--------------------------
THERMOCHEMISTRY AT 298.15K
--------------------------

Temperature         ... 298.15 K
Pressure            ... 1.00 atm
Total Mass          ... 181.30 AMU

Throughout the following assumptions are being made:
  (1) The electronic state is orbitally nondegenerate
  (2) There are no thermally accessible electronically excited states
  (3) Hindered rotations indicated by low frequency modes are not
      treated as such but are treated as vibrations and this may
      cause some error
  (4) All equations used are the standard statistical mechanics
      equations for an ideal gas
  (5) All vibrations are strictly harmonic

freq.      26.47  E(vib)   ...       0.56
freq.      39.34  E(vib)   ...       0.54
freq.     120.46  E(vib)   ...       0.44
freq.     145.70  E(vib)   ...       0.41
freq.     150.48  E(vib)   ...       0.40
freq.     226.48  E(vib)   ...       0.33
freq.     232.20  E(vib)   ...       0.32
freq.     258.55  E(vib)   ...       0.30
freq.     264.64  E(vib)   ...       0.29
freq.     272.43  E(vib)   ...       0.29
freq.     280.30  E(vib)   ...       0.28
freq.     332.54  E(vib)   ...       0.24
freq.     336.85  E(vib)   ...       0.24
freq.     343.75  E(vib)   ...       0.23
freq.     354.17  E(vib)   ...       0.22
freq.     365.37  E(vib)   ...       0.22
freq.     370.91  E(vib)   ...       0.21
freq.     401.44  E(vib)   ...       0.19
freq.     444.34  E(vib)   ...       0.17
freq.     468.83  E(vib)   ...       0.16
freq.     470.20  E(vib)   ...       0.16
freq.     520.46  E(vib)   ...       0.13
freq.     578.14  E(vib)   ...       0.11
freq.     639.58  E(vib)   ...       0.09
freq.     679.13  E(vib)   ...       0.08
freq.     691.91  E(vib)   ...       0.07
freq.     773.72  E(vib)   ...       0.05
freq.     845.78  E(vib)   ...       0.04
freq.     849.63  E(vib)   ...       0.04
freq.     891.91  E(vib)   ...       0.03
freq.     922.49  E(vib)   ...       0.03
freq.     948.97  E(vib)   ...       0.03
freq.     949.12  E(vib)   ...       0.03
freq.     958.70  E(vib)   ...       0.03
freq.     959.32  E(vib)   ...       0.03
freq.     969.41  E(vib)   ...       0.03
freq.     969.73  E(vib)   ...       0.03
freq.    1022.99  E(vib)   ...       0.02
freq.    1040.36  E(vib)   ...       0.02
freq.    1050.06  E(vib)   ...       0.02
freq.    1051.02  E(vib)   ...       0.02
freq.    1054.47  E(vib)   ...       0.02
freq.    1055.30  E(vib)   ...       0.02
freq.    1124.80  E(vib)   ...       0.01
freq.    1150.49  E(vib)   ...       0.01
freq.    1222.78  E(vib)   ...       0.01
freq.    1236.78  E(vib)   ...       0.01
freq.    1265.65  E(vib)   ...       0.01
freq.    1269.62  E(vib)   ...       0.01
freq.    1277.79  E(vib)   ...       0.01
freq.    1279.90  E(vib)   ...       0.01
freq.    1303.84  E(vib)   ...       0.01
freq.    1356.51  E(vib)   ...       0.01
freq.    1396.32  E(vib)   ...       0.00
freq.    1396.54  E(vib)   ...       0.00
freq.    1401.57  E(vib)   ...       0.00
freq.    1402.02  E(vib)   ...       0.00
freq.    1413.63  E(vib)   ...       0.00
freq.    1413.83  E(vib)   ...       0.00
freq.    1441.99  E(vib)   ...       0.00
freq.    1442.58  E(vib)   ...       0.00
freq.    1442.67  E(vib)   ...       0.00
freq.    1448.05  E(vib)   ...       0.00
freq.    1448.16  E(vib)   ...       0.00
freq.    1450.59  E(vib)   ...       0.00
freq.    1454.31  E(vib)   ...       0.00
freq.    1462.27  E(vib)   ...       0.00
freq.    1471.91  E(vib)   ...       0.00
freq.    1472.29  E(vib)   ...       0.00
freq.    1476.29  E(vib)   ...       0.00
freq.    1478.90  E(vib)   ...       0.00
freq.    1479.43  E(vib)   ...       0.00
freq.    1489.35  E(vib)   ...       0.00
freq.    1636.49  E(vib)   ...       0.00
freq.    1653.96  E(vib)   ...       0.00
freq.    3070.92  E(vib)   ...       0.00
freq.    3071.14  E(vib)   ...       0.00
freq.    3072.32  E(vib)   ...       0.00
freq.    3072.43  E(vib)   ...       0.00
freq.    3075.97  E(vib)   ...       0.00
freq.    3076.05  E(vib)   ...       0.00
freq.    3174.37  E(vib)   ...       0.00
freq.    3174.67  E(vib)   ...       0.00
freq.    3178.47  E(vib)   ...       0.00
freq.    3178.71  E(vib)   ...       0.00
freq.    3179.51  E(vib)   ...       0.00
freq.    3179.77  E(vib)   ...       0.00
freq.    3184.44  E(vib)   ...       0.00
freq.    3184.45  E(vib)   ...       0.00
freq.    3185.00  E(vib)   ...       0.00
freq.    3185.17  E(vib)   ...       0.00
freq.    3189.69  E(vib)   ...       0.00
freq.    3189.91  E(vib)   ...       0.00
freq.    3306.32  E(vib)   ...       0.00
freq.    3323.40  E(vib)   ...       0.00
freq.    3336.31  E(vib)   ...       0.00

------------
INNER ENERGY
------------

The inner energy is: U= E(el) + E(ZPE) + E(vib) + E(rot) + E(trans)
    E(el)   - is the total energy from the electronic structure calculation
              = E(kin-el) + E(nuc-el) + E(el-el) + E(nuc-nuc)
    E(ZPE)  - the the zero temperature vibrational energy from the frequency calculation
    E(vib)  - the the finite temperature correction to E(ZPE) due to population
              of excited vibrational states
    E(rot)  - is the rotational thermal energy
    E(trans)- is the translational thermal energy

Summary of contributions to the inner energy U:
Electronic energy                ...   -540.69433090 Eh
Zero point energy                ...      0.31114752 Eh     195.25 kcal/mol
Thermal vibrational correction   ...      0.01164284 Eh       7.31 kcal/mol
Thermal rotational correction    ...      0.00141627 Eh       0.89 kcal/mol
Thermal translational correction ...      0.00141627 Eh       0.89 kcal/mol
-----------------------------------------------------------------------
Total thermal energy                   -540.36870799 Eh

Summary of corrections to the electronic energy:
(perhaps to be used in another calculation)
Total thermal correction                  0.01447538 Eh       9.08 kcal/mol
Non-thermal (ZPE) correction              0.31114752 Eh     195.25 kcal/mol
-----------------------------------------------------------------------
Total correction                          0.32562291 Eh     204.33 kcal/mol

--------
ENTHALPY
--------

The enthalpy is H = U + kB*T
                kB is Boltzmann's constant
Total free energy                 ...   -540.36870799 Eh
Thermal Enthalpy correction       ...      0.00094421 Eh       0.59 kcal/mol
-----------------------------------------------------------------------
Total Enthalpy                    ...   -540.36776378 Eh

Note: Only C1 symmetry has been detected, increase convergence thresholds
      if your molecule has a higher symmetry. Symmetry factor of 1.0 is
      used for the rotational entropy correction.

Rotational constants in cm-1:     0.055417     0.014783     0.013816

                             ****ORCA TERMINATED NORMALLY****
TOTAL RUN TIME: 0 days 3 hours 47 minutes 48 seconds 75 msec
