                         Program Version 5.0.4 -  RELEASE  -
|  1> # ORCA 5.0.4 - /users/bwb16179/postgrad/2024_03/DFT_Crest_Conformers/Opt/prot/5_prot_aq_2.inp # write input file
|  2> # Basic Mode
|  3> #
|  4> ! Opt Freq wB97X Def2-SVP D4 SlowConv TightSCF Defgrid2 Def2/J RIJCOSX CPCM(Water)
|  5>
|  6>
|  7>
|  8> %maxcore 4500
|  9>
| 10> %geom
| 11> Maxiter 150
| 12> END
| 13>
| 14> * xyzfile 1 1 5_prot_aq_2.xyz
| 15>
| 16>                          ****END OF INPUT****
 Total Charge           Charge          ....    1
 Multiplicity           Mult            ....    1
 Number of Electrons    NEL             ....  100
Dispersion correction           -0.005620208
FINAL SINGLE POINT ENERGY      -540.689373885525
Dispersion correction            ... Starting D4
Dispersion correction           -0.005601238
FINAL SINGLE POINT ENERGY      -540.693364979114
Dispersion correction            ... Starting D4
Dispersion correction           -0.005598545
FINAL SINGLE POINT ENERGY      -540.693488237675
Dispersion correction            ... Starting D4
Dispersion correction           -0.005597809
FINAL SINGLE POINT ENERGY      -540.693523466059
Dispersion correction            ... Starting D4
Dispersion correction           -0.005597658
FINAL SINGLE POINT ENERGY      -540.693525161813
Dispersion correction            ... Starting D4
                    ***********************HURRAY********************

CARTESIAN COORDINATES (ANGSTROEM)
---------------------------------
  N     -1.090662   -0.245567    0.130149
  C     -0.016404    0.493937   -0.149145
  N      1.084497   -0.220498    0.072219
  H     -0.042843    1.522475   -0.503551
  C      0.701812   -1.468876    0.514406
  C     -0.657788   -1.484880    0.549820
  C     -2.506297    0.230359   -0.015987
  C      2.502385    0.215273   -0.132563
  C     -2.699685    1.436159    0.904615
  C     -3.447844   -0.900194    0.387179
  C     -2.729888    0.605649   -1.481680
  C      3.123774   -0.709383   -1.180112
  C      3.225206    0.101323    1.209662
  C      2.518594    1.658660   -0.624918
  H      1.418564   -2.247228    0.766978
  H     -1.335865   -2.282210    0.839583
  H     -2.044985    2.273456    0.618979
  H     -2.492746    1.164969    1.950977
  H     -3.741224    1.781892    0.833136
  H     -2.084280    1.441491   -1.791332
  H     -3.775229    0.919158   -1.617778
  H     -2.534331   -0.255807   -2.138062
  H      3.236834   -0.935911    1.576342
  H      2.746151    0.740570    1.966701
  H      4.267840    0.427927    1.084922
  H     -3.300848   -1.198178    1.436186
  H     -3.326358   -1.781480   -0.260431
  H     -4.480927   -0.541330    0.279266
  H      2.570122   -0.648996   -2.129349
  H      3.135545   -1.756253   -0.841742
  H      4.163587   -0.400838   -1.361707
  H      2.071434    2.346199    0.109171
  H      1.998374    1.767232   -1.588877
  H      3.565406    1.958326   -0.773068

 Multiplicity           Mult            ....    1
 Number of Electrons    NEL             ....  100
 Basis Dimension        Dim             ....  287

ORBITAL ENERGIES
----------------

  NO   OCC          E(Eh)            E(eV)
   0   2.0000     -14.508707      -394.8020
   1   2.0000     -14.507019      -394.7561
   2   2.0000     -10.382083      -282.5108
   3   2.0000     -10.345700      -281.5208
   4   2.0000     -10.345559      -281.5170
   5   2.0000     -10.333377      -281.1855
   6   2.0000     -10.331429      -281.1325
   7   2.0000     -10.276082      -279.6264
   8   2.0000     -10.275057      -279.5985
   9   2.0000     -10.274099      -279.5724
  10   2.0000     -10.274081      -279.5720
  11   2.0000     -10.273845      -279.5655
  12   2.0000     -10.273782      -279.5638
  13   2.0000      -1.212985       -33.0070
  14   2.0000      -1.094799       -29.7910
  15   2.0000      -0.980084       -26.6694
  16   2.0000      -0.932869       -25.3847
  17   2.0000      -0.920688       -25.0532
  18   2.0000      -0.833403       -22.6780
  19   2.0000      -0.823567       -22.4104
  20   2.0000      -0.823445       -22.4071
  21   2.0000      -0.822789       -22.3892
  22   2.0000      -0.791888       -21.5484
  23   2.0000      -0.764116       -20.7927
  24   2.0000      -0.725242       -19.7348
  25   2.0000      -0.701285       -19.0829
  26   2.0000      -0.643351       -17.5065
  27   2.0000      -0.627241       -17.0681
  28   2.0000      -0.606515       -16.5041
  29   2.0000      -0.586078       -15.9480
  30   2.0000      -0.585890       -15.9429
  31   2.0000      -0.577069       -15.7028
  32   2.0000      -0.573621       -15.6090
  33   2.0000      -0.553606       -15.0644
  34   2.0000      -0.552007       -15.0209
  35   2.0000      -0.549313       -14.9476
  36   2.0000      -0.518240       -14.1020
  37   2.0000      -0.505024       -13.7424
  38   2.0000      -0.498823       -13.5737
  39   2.0000      -0.497228       -13.5303
  40   2.0000      -0.492393       -13.3987
  41   2.0000      -0.486958       -13.2508
  42   2.0000      -0.480109       -13.0644
  43   2.0000      -0.479736       -13.0543
  44   2.0000      -0.467257       -12.7147
  45   2.0000      -0.454143       -12.3579
  46   2.0000      -0.452734       -12.3195
  47   2.0000      -0.451610       -12.2889
  48   2.0000      -0.412196       -11.2164
  49   2.0000      -0.372547       -10.1375
  50   0.0000       0.060986         1.6595
  51   0.0000       0.095718         2.6046
  52   0.0000       0.130618         3.5543
  53   0.0000       0.143276         3.8987
  54   0.0000       0.163814         4.4576

MULLIKEN ATOMIC CHARGES
-----------------------
   0 N :   -0.186551
   1 C :    0.209226
   2 N :   -0.174269
   3 H :    0.136726
   4 C :    0.054503
   5 C :    0.065825
   6 C :   -0.237635
   7 C :   -0.239965
   8 C :    0.035286
   9 C :    0.010641
  10 C :    0.033768
  11 C :    0.037911
  12 C :    0.036983
  13 C :    0.002352
  14 H :    0.106721
  15 H :    0.098946
  16 H :    0.049773
  17 H :    0.053674
  18 H :    0.057930
  19 H :    0.049733
  20 H :    0.058221
  21 H :    0.053959
  22 H :    0.050367
  23 H :    0.052672
  24 H :    0.058075
  25 H :    0.058529
  26 H :    0.058350
  27 H :    0.062378
  28 H :    0.052420
  29 H :    0.049976
  30 H :    0.058187
  31 H :    0.060560
  32 H :    0.060622
  33 H :    0.064105
Sum of atomic charges:    1.0000000

LOEWDIN ATOMIC CHARGES
----------------------
   0 N :    0.095494
   1 C :    0.119956
   2 N :    0.102707
   3 H :    0.063819
   4 C :    0.012536
   5 C :    0.018871
   6 C :    0.017554
   7 C :    0.017332
   8 C :   -0.045528
   9 C :   -0.047608
  10 C :   -0.045748
  11 C :   -0.044578
  12 C :   -0.044679
  13 C :   -0.049014
  14 H :    0.059511
  15 H :    0.059917
  16 H :    0.034689
  17 H :    0.037193
  18 H :    0.043700
  19 H :    0.034583
  20 H :    0.043751
  21 H :    0.037195
  22 H :    0.034944
  23 H :    0.036973
  24 H :    0.043838
  25 H :    0.037592
  26 H :    0.037604
  27 H :    0.047238
  28 H :    0.036923
  29 H :    0.034750
  30 H :    0.043714
  31 H :    0.038145
  32 H :    0.038060
  33 H :    0.048568

  Mayer bond orders larger than 0.100000
B(  0-N ,  1-C ) :   1.3407 B(  0-N ,  5-C ) :   1.1815 B(  0-N ,  6-C ) :   0.7926
B(  1-C ,  2-N ) :   1.3714 B(  1-C ,  3-H ) :   0.9610 B(  2-N ,  4-C ) :   1.1716
B(  2-N ,  7-C ) :   0.8093 B(  4-C ,  5-C ) :   1.5942 B(  4-C , 14-H ) :   0.9796
B(  5-C , 15-H ) :   0.9852 B(  6-C ,  8-C ) :   1.0402 B(  6-C ,  9-C ) :   1.0682
B(  6-C , 10-C ) :   1.0400 B(  7-C , 11-C ) :   1.0382 B(  7-C , 12-C ) :   1.0383
B(  7-C , 13-C ) :   1.0656 B(  8-C , 16-H ) :   0.9611 B(  8-C , 17-H ) :   0.9648
B(  8-C , 18-H ) :   0.9691 B(  9-C , 25-H ) :   0.9570 B(  9-C , 26-H ) :   0.9572
B(  9-C , 27-H ) :   0.9623 B( 10-C , 19-H ) :   0.9612 B( 10-C , 20-H ) :   0.9691
B( 10-C , 21-H ) :   0.9648 B( 11-C , 28-H ) :   0.9647 B( 11-C , 29-H ) :   0.9611
B( 11-C , 30-H ) :   0.9693 B( 12-C , 22-H ) :   0.9613 B( 12-C , 23-H ) :   0.9647
B( 12-C , 24-H ) :   0.9691 B( 13-C , 31-H ) :   0.9567 B( 13-C , 32-H ) :   0.9563
B( 13-C , 33-H ) :   0.9612

Dispersion correction           -0.005597753
FINAL SINGLE POINT ENERGY      -540.693523686626

DIPOLE MOMENT
-------------
                                X             Y             Z
Electronic contribution:     -0.00242      -4.02735       1.55757
Nuclear contribution   :      0.00303       4.03387      -1.56167
                        -----------------------------------------
Total Dipole Moment    :      0.00062       0.00653      -0.00410
                        -----------------------------------------
Magnitude (a.u.)       :      0.00773
Magnitude (Debye)      :      0.01966

Dispersion correction in the Hessian             ... Starting D4

VIBRATIONAL FREQUENCIES
-----------------------

Scaling factor for frequencies =  1.000000000  (already applied!)

   0:         0.00 cm**-1
   1:         0.00 cm**-1
   2:         0.00 cm**-1
   3:         0.00 cm**-1
   4:         0.00 cm**-1
   5:         0.00 cm**-1
   6:        36.22 cm**-1
   7:        42.10 cm**-1
   8:       101.14 cm**-1
   9:       141.81 cm**-1
  10:       157.20 cm**-1
  11:       228.42 cm**-1
  12:       236.00 cm**-1
  13:       263.08 cm**-1
  14:       263.91 cm**-1
  15:       272.34 cm**-1
  16:       301.83 cm**-1
  17:       335.46 cm**-1
  18:       335.92 cm**-1
  19:       340.29 cm**-1
  20:       349.05 cm**-1
  21:       363.12 cm**-1
  22:       370.60 cm**-1
  23:       410.65 cm**-1
  24:       443.82 cm**-1
  25:       471.71 cm**-1
  26:       474.33 cm**-1
  27:       519.88 cm**-1
  28:       574.32 cm**-1
  29:       636.11 cm**-1
  30:       683.24 cm**-1
  31:       686.45 cm**-1
  32:       759.82 cm**-1
  33:       846.81 cm**-1
  34:       850.85 cm**-1
  35:       898.38 cm**-1
  36:       913.32 cm**-1
  37:       947.95 cm**-1
  38:       949.15 cm**-1
  39:       956.12 cm**-1
  40:       956.53 cm**-1
  41:       970.83 cm**-1
  42:       973.33 cm**-1
  43:      1022.32 cm**-1
  44:      1039.02 cm**-1
  45:      1050.53 cm**-1
  46:      1052.05 cm**-1
  47:      1054.90 cm**-1
  48:      1056.72 cm**-1
  49:      1122.97 cm**-1
  50:      1151.92 cm**-1
  51:      1221.01 cm**-1
  52:      1234.90 cm**-1
  53:      1267.90 cm**-1
  54:      1273.68 cm**-1
  55:      1279.46 cm**-1
  56:      1281.05 cm**-1
  57:      1305.66 cm**-1
  58:      1359.64 cm**-1
  59:      1395.92 cm**-1
  60:      1396.11 cm**-1
  61:      1398.89 cm**-1
  62:      1401.92 cm**-1
  63:      1412.55 cm**-1
  64:      1413.35 cm**-1
  65:      1441.86 cm**-1
  66:      1444.17 cm**-1
  67:      1445.82 cm**-1
  68:      1447.82 cm**-1
  69:      1448.67 cm**-1
  70:      1450.62 cm**-1
  71:      1454.64 cm**-1
  72:      1460.49 cm**-1
  73:      1470.22 cm**-1
  74:      1471.10 cm**-1
  75:      1473.72 cm**-1
  76:      1479.23 cm**-1
  77:      1481.37 cm**-1
  78:      1490.72 cm**-1
  79:      1635.12 cm**-1
  80:      1648.43 cm**-1
  81:      3070.98 cm**-1
  82:      3072.42 cm**-1
  83:      3072.97 cm**-1
  84:      3073.14 cm**-1
  85:      3076.91 cm**-1
  86:      3077.47 cm**-1
  87:      3175.80 cm**-1
  88:      3176.30 cm**-1
  89:      3178.32 cm**-1
  90:      3179.55 cm**-1
  91:      3180.47 cm**-1
  92:      3180.75 cm**-1
  93:      3184.10 cm**-1
  94:      3184.63 cm**-1
  95:      3185.05 cm**-1
  96:      3185.73 cm**-1
  97:      3189.90 cm**-1
  98:      3190.43 cm**-1
  99:      3312.13 cm**-1
 100:      3324.63 cm**-1
 101:      3337.19 cm**-1

IR SPECTRUM
-----------

 Mode   freq       eps      Int      T**2         TX        TY        TZ
       cm**-1   L/(mol*cm) km/mol    a.u.
----------------------------------------------------------------------------
  6:     36.22   0.000000    0.00  0.000001  (-0.000120  0.000068  0.000716)
  7:     42.10   0.000000    0.00  0.000001  (-0.000486 -0.000994  0.000032)
  8:    101.14   0.000025    0.12  0.000076  ( 0.000681 -0.001881 -0.008503)
  9:    141.81   0.000020    0.10  0.000044  (-0.000475  0.006113 -0.002626)
 10:    157.20   0.000001    0.01  0.000003  (-0.000104 -0.000642 -0.001482)
 11:    228.42   0.000004    0.02  0.000006  ( 0.000431 -0.001622 -0.001806)
 12:    236.00   0.000001    0.01  0.000002  (-0.000158  0.000944 -0.000839)
 13:    263.08   0.000000    0.00  0.000000  (-0.000353 -0.000585  0.000025)
 14:    263.91   0.000021    0.11  0.000025  ( 0.001012  0.004695 -0.001343)
 15:    272.34   0.000035    0.17  0.000040  (-0.003644 -0.004764  0.001911)
 16:    301.83   0.000007    0.03  0.000007  ( 0.002623  0.000125  0.000015)
 17:    335.46   0.000027    0.14  0.000025  (-0.000313  0.002177  0.004525)
 18:    335.92   0.000017    0.08  0.000015  (-0.000736  0.001169  0.003681)
 19:    340.29   0.000021    0.11  0.000019  ( 0.000406  0.004359 -0.000470)
 20:    349.05   0.000053    0.27  0.000047  ( 0.000350 -0.000709 -0.006826)
 21:    363.12   0.000003    0.02  0.000003  (-0.000475 -0.000469 -0.001589)
 22:    370.60   0.000006    0.03  0.000005  ( 0.000971 -0.002029 -0.000605)
 23:    410.65   0.000017    0.08  0.000013  ( 0.003335  0.001189 -0.000051)
 24:    443.82   0.000009    0.05  0.000007  ( 0.000278  0.000599  0.002469)
 25:    471.71   0.000053    0.27  0.000035  ( 0.004611  0.003518 -0.001277)
 26:    474.33   0.000008    0.04  0.000005  (-0.000330 -0.001134 -0.001900)
 27:    519.88   0.000007    0.04  0.000004  ( 0.001593  0.001288  0.000393)
 28:    574.32   0.000150    0.76  0.000082  (-0.000472  0.008640 -0.002622)
 29:    636.11   0.001663    8.41  0.000816  (-0.028493  0.001155  0.001674)
 30:    683.24   0.006770   34.21  0.003092  (-0.001968 -0.019078 -0.052196)
 31:    686.45   0.008122   41.05  0.003692  ( 0.002629  0.020649  0.057088)
 32:    759.82   0.008932   45.14  0.003668  (-0.000271 -0.020154 -0.057114)
 33:    846.81   0.000008    0.04  0.000003  (-0.001184  0.001169 -0.000509)
 34:    850.85   0.000231    1.17  0.000085  ( 0.009118  0.000542 -0.001082)
 35:    898.38   0.005106   25.80  0.001774  ( 0.002472  0.015080  0.039243)
 36:    913.32   0.000005    0.03  0.000002  ( 0.000394  0.000918  0.000928)
 37:    947.95   0.000553    2.79  0.000182  ( 0.001226 -0.003585 -0.012947)
 38:    949.15   0.000598    3.02  0.000197  ( 0.000815  0.005843  0.012719)
 39:    956.12   0.001198    6.05  0.000391  ( 0.009403  0.016536 -0.005385)
 40:    956.53   0.000412    2.08  0.000135  (-0.002104  0.010086 -0.005326)
 41:    970.83   0.000049    0.25  0.000016  (-0.000675 -0.001662 -0.003529)
 42:    973.33   0.000024    0.12  0.000008  (-0.000188  0.001192  0.002493)
 43:   1022.32   0.001442    7.29  0.000440  ( 0.020961 -0.000867 -0.000119)
 44:   1039.02   0.000102    0.51  0.000031  ( 0.002758 -0.004589  0.001361)
 45:   1050.53   0.000123    0.62  0.000037  ( 0.005411 -0.002636  0.000597)
 46:   1052.05   0.000019    0.10  0.000006  ( 0.001985 -0.000634  0.001114)
 47:   1054.90   0.000040    0.20  0.000012  (-0.000364  0.000908  0.003311)
 48:   1056.72   0.000136    0.68  0.000040  ( 0.000712  0.002882  0.005586)
 49:   1122.97   0.004921   24.87  0.001367  ( 0.002457  0.034720 -0.012489)
 50:   1151.92   0.016307   82.41  0.004418  ( 0.066411 -0.002426 -0.001202)
 51:   1221.01   0.002652   13.40  0.000678  ( 0.012464 -0.021318  0.008246)
 52:   1234.90   0.076757  387.90  0.019397  ( 0.139221 -0.002275 -0.003047)
 53:   1267.90   0.000291    1.47  0.000072  ( 0.000954  0.007976 -0.002679)
 54:   1273.68   0.001741    8.80  0.000427  ( 0.018308  0.009051 -0.003087)
 55:   1279.46   0.000388    1.96  0.000095  (-0.000950  0.003832  0.008896)
 56:   1281.05   0.006298   31.83  0.001534  (-0.001914 -0.012852 -0.036952)
 57:   1305.66   0.000293    1.48  0.000070  (-0.008363 -0.000240  0.000367)
 58:   1359.64   0.005058   25.56  0.001161  ( 0.000601  0.031949 -0.011826)
 59:   1395.92   0.001624    8.21  0.000363  (-0.001304 -0.006314 -0.017929)
 60:   1396.11   0.008816   44.55  0.001971  ( 0.000258 -0.007976 -0.043669)
 61:   1398.89   0.008311   42.00  0.001854  ( 0.016502  0.039324 -0.005936)
 62:   1401.92   0.004723   23.87  0.001051  ( 0.011501 -0.029014  0.008793)
 63:   1412.55   0.001334    6.74  0.000295  (-0.016706  0.003566  0.001718)
 64:   1413.35   0.001534    7.75  0.000339  (-0.016331 -0.007774  0.003388)
 65:   1441.86   0.000077    0.39  0.000017  ( 0.000631 -0.001267 -0.003834)
 66:   1444.17   0.000089    0.45  0.000019  ( 0.000342  0.000290  0.004363)
 67:   1445.82   0.000301    1.52  0.000065  (-0.007911 -0.001338  0.000762)
 68:   1447.82   0.000017    0.08  0.000004  (-0.000012  0.000376  0.001858)
 69:   1448.67   0.000030    0.15  0.000007  (-0.001308 -0.000803  0.002039)
 70:   1450.62   0.000205    1.03  0.000044  (-0.003070 -0.005377  0.002381)
 71:   1454.64   0.000605    3.06  0.000130  ( 0.011310 -0.000055 -0.001331)
 72:   1460.49   0.005829   29.46  0.001246  (-0.004086 -0.033072  0.011623)
 73:   1470.22   0.001507    7.61  0.000320  (-0.000705 -0.006644 -0.016588)
 74:   1471.10   0.001824    9.22  0.000387  (-0.001285 -0.006374 -0.018563)
 75:   1473.72   0.000296    1.50  0.000063  (-0.007442  0.001075 -0.002486)
 76:   1479.23   0.001879    9.50  0.000396  ( 0.018948 -0.006076  0.000712)
 77:   1481.37   0.000806    4.08  0.000170  (-0.010417 -0.006515  0.004349)
 78:   1490.72   0.000114    0.58  0.000024  ( 0.004778  0.000976 -0.000369)
 79:   1635.12   0.028568  144.37  0.005452  (-0.073564 -0.005264  0.003585)
 80:   1648.43   0.006592   33.31  0.001248  ( 0.029208 -0.018976  0.005895)
 81:   3070.98   0.003084   15.58  0.000313  (-0.000030 -0.000773 -0.017685)
 82:   3072.42   0.003283   16.59  0.000333  ( 0.007388 -0.016697  0.000232)
 83:   3072.97   0.002470   12.48  0.000251  (-0.002344 -0.015663  0.000177)
 84:   3073.14   0.003243   16.39  0.000329  ( 0.002244  0.003148  0.017730)
 85:   3076.91   0.000262    1.33  0.000027  ( 0.004968 -0.000247  0.001368)
 86:   3077.47   0.000582    2.94  0.000059  ( 0.004878  0.005205 -0.002846)
 87:   3175.80   0.001635    8.26  0.000161  ( 0.000052 -0.003523 -0.012175)
 88:   3176.30   0.001787    9.03  0.000176  ( 0.005348  0.010126  0.006665)
 89:   3178.32   0.004329   21.88  0.000425  (-0.009749 -0.015468  0.009525)
 90:   3179.55   0.002217   11.21  0.000218  (-0.002962  0.002901 -0.014158)
 91:   3180.47   0.002019   10.21  0.000198  (-0.000312 -0.004093 -0.013464)
 92:   3180.75   0.003561   17.99  0.000349  ( 0.005772 -0.017775  0.000290)
 93:   3184.10   0.001800    9.10  0.000176  ( 0.002290 -0.005436 -0.011901)
 94:   3184.63   0.000774    3.91  0.000076  (-0.001641 -0.004759 -0.007103)
 95:   3185.05   0.001332    6.73  0.000130  (-0.011279 -0.001788 -0.000294)
 96:   3185.73   0.001542    7.79  0.000151  (-0.003544 -0.010561  0.005189)
 97:   3189.90   0.005525   27.92  0.000541  (-0.022699 -0.004406  0.002425)
 98:   3190.43   0.004248   21.47  0.000416  (-0.017194  0.010127 -0.004162)
 99:   3312.13   0.005447   27.53  0.000513  (-0.020384  0.009432 -0.002956)
100:   3324.63   0.011839   59.83  0.001111  (-0.004011 -0.031282  0.010796)
101:   3337.19   0.003004   15.18  0.000281  (-0.009362 -0.013077  0.004717)

--------------------------
THERMOCHEMISTRY AT 298.15K
--------------------------

Temperature         ... 298.15 K
Pressure            ... 1.00 atm
Total Mass          ... 181.30 AMU

Throughout the following assumptions are being made:
  (1) The electronic state is orbitally nondegenerate
  (2) There are no thermally accessible electronically excited states
  (3) Hindered rotations indicated by low frequency modes are not
      treated as such but are treated as vibrations and this may
      cause some error
  (4) All equations used are the standard statistical mechanics
      equations for an ideal gas
  (5) All vibrations are strictly harmonic

freq.      36.22  E(vib)   ...       0.54
freq.      42.10  E(vib)   ...       0.53
freq.     101.14  E(vib)   ...       0.46
freq.     141.81  E(vib)   ...       0.41
freq.     157.20  E(vib)   ...       0.40
freq.     228.42  E(vib)   ...       0.32
freq.     236.00  E(vib)   ...       0.32
freq.     263.08  E(vib)   ...       0.29
freq.     263.91  E(vib)   ...       0.29
freq.     272.34  E(vib)   ...       0.29
freq.     301.83  E(vib)   ...       0.26
freq.     335.46  E(vib)   ...       0.24
freq.     335.92  E(vib)   ...       0.24
freq.     340.29  E(vib)   ...       0.23
freq.     349.05  E(vib)   ...       0.23
freq.     363.12  E(vib)   ...       0.22
freq.     370.60  E(vib)   ...       0.21
freq.     410.65  E(vib)   ...       0.19
freq.     443.82  E(vib)   ...       0.17
freq.     471.71  E(vib)   ...       0.15
freq.     474.33  E(vib)   ...       0.15
freq.     519.88  E(vib)   ...       0.13
freq.     574.32  E(vib)   ...       0.11
freq.     636.11  E(vib)   ...       0.09
freq.     683.24  E(vib)   ...       0.08
freq.     686.45  E(vib)   ...       0.07
freq.     759.82  E(vib)   ...       0.06
freq.     846.81  E(vib)   ...       0.04
freq.     850.85  E(vib)   ...       0.04
freq.     898.38  E(vib)   ...       0.03
freq.     913.32  E(vib)   ...       0.03
freq.     947.95  E(vib)   ...       0.03
freq.     949.15  E(vib)   ...       0.03
freq.     956.12  E(vib)   ...       0.03
freq.     956.53  E(vib)   ...       0.03
freq.     970.83  E(vib)   ...       0.03
freq.     973.33  E(vib)   ...       0.03
freq.    1022.32  E(vib)   ...       0.02
freq.    1039.02  E(vib)   ...       0.02
freq.    1050.53  E(vib)   ...       0.02
freq.    1052.05  E(vib)   ...       0.02
freq.    1054.90  E(vib)   ...       0.02
freq.    1056.72  E(vib)   ...       0.02
freq.    1122.97  E(vib)   ...       0.01
freq.    1151.92  E(vib)   ...       0.01
freq.    1221.01  E(vib)   ...       0.01
freq.    1234.90  E(vib)   ...       0.01
freq.    1267.90  E(vib)   ...       0.01
freq.    1273.68  E(vib)   ...       0.01
freq.    1279.46  E(vib)   ...       0.01
freq.    1281.05  E(vib)   ...       0.01
freq.    1305.66  E(vib)   ...       0.01
freq.    1359.64  E(vib)   ...       0.01
freq.    1395.92  E(vib)   ...       0.00
freq.    1396.11  E(vib)   ...       0.00
freq.    1398.89  E(vib)   ...       0.00
freq.    1401.92  E(vib)   ...       0.00
freq.    1412.55  E(vib)   ...       0.00
freq.    1413.35  E(vib)   ...       0.00
freq.    1441.86  E(vib)   ...       0.00
freq.    1444.17  E(vib)   ...       0.00
freq.    1445.82  E(vib)   ...       0.00
freq.    1447.82  E(vib)   ...       0.00
freq.    1448.67  E(vib)   ...       0.00
freq.    1450.62  E(vib)   ...       0.00
freq.    1454.64  E(vib)   ...       0.00
freq.    1460.49  E(vib)   ...       0.00
freq.    1470.22  E(vib)   ...       0.00
freq.    1471.10  E(vib)   ...       0.00
freq.    1473.72  E(vib)   ...       0.00
freq.    1479.23  E(vib)   ...       0.00
freq.    1481.37  E(vib)   ...       0.00
freq.    1490.72  E(vib)   ...       0.00
freq.    1635.12  E(vib)   ...       0.00
freq.    1648.43  E(vib)   ...       0.00
freq.    3070.98  E(vib)   ...       0.00
freq.    3072.42  E(vib)   ...       0.00
freq.    3072.97  E(vib)   ...       0.00
freq.    3073.14  E(vib)   ...       0.00
freq.    3076.91  E(vib)   ...       0.00
freq.    3077.47  E(vib)   ...       0.00
freq.    3175.80  E(vib)   ...       0.00
freq.    3176.30  E(vib)   ...       0.00
freq.    3178.32  E(vib)   ...       0.00
freq.    3179.55  E(vib)   ...       0.00
freq.    3180.47  E(vib)   ...       0.00
freq.    3180.75  E(vib)   ...       0.00
freq.    3184.10  E(vib)   ...       0.00
freq.    3184.63  E(vib)   ...       0.00
freq.    3185.05  E(vib)   ...       0.00
freq.    3185.73  E(vib)   ...       0.00
freq.    3189.90  E(vib)   ...       0.00
freq.    3190.43  E(vib)   ...       0.00
freq.    3312.13  E(vib)   ...       0.00
freq.    3324.63  E(vib)   ...       0.00
freq.    3337.19  E(vib)   ...       0.00

------------
INNER ENERGY
------------

The inner energy is: U= E(el) + E(ZPE) + E(vib) + E(rot) + E(trans)
    E(el)   - is the total energy from the electronic structure calculation
              = E(kin-el) + E(nuc-el) + E(el-el) + E(nuc-nuc)
    E(ZPE)  - the the zero temperature vibrational energy from the frequency calculation
    E(vib)  - the the finite temperature correction to E(ZPE) due to population
              of excited vibrational states
    E(rot)  - is the rotational thermal energy
    E(trans)- is the translational thermal energy

Summary of contributions to the inner energy U:
Electronic energy                ...   -540.69352369 Eh
Zero point energy                ...      0.31121463 Eh     195.29 kcal/mol
Thermal vibrational correction   ...      0.01161149 Eh       7.29 kcal/mol
Thermal rotational correction    ...      0.00141627 Eh       0.89 kcal/mol
Thermal translational correction ...      0.00141627 Eh       0.89 kcal/mol
-----------------------------------------------------------------------
Total thermal energy                   -540.36786502 Eh

Summary of corrections to the electronic energy:
(perhaps to be used in another calculation)
Total thermal correction                  0.01444403 Eh       9.06 kcal/mol
Non-thermal (ZPE) correction              0.31121463 Eh     195.29 kcal/mol
-----------------------------------------------------------------------
Total correction                          0.32565866 Eh     204.35 kcal/mol

--------
ENTHALPY
--------

The enthalpy is H = U + kB*T
                kB is Boltzmann's constant
Total free energy                 ...   -540.36786502 Eh
Thermal Enthalpy correction       ...      0.00094421 Eh       0.59 kcal/mol
-----------------------------------------------------------------------
Total Enthalpy                    ...   -540.36692082 Eh

Note: Only C1 symmetry has been detected, increase convergence thresholds
      if your molecule has a higher symmetry. Symmetry factor of 1.0 is
      used for the rotational entropy correction.

Rotational constants in cm-1:     0.055155     0.014873     0.013877

                             ****ORCA TERMINATED NORMALLY****
TOTAL RUN TIME: 0 days 1 hours 39 minutes 33 seconds 477 msec
