                         Program Version 5.0.4 -  RELEASE  -
|  1> # ORCA 5.0.4 - /users/bwb16179/postgrad/2024_03/DFT_Crest_Conformers/Opt/prot/5_prot_aq_8.inp # write input file
|  2> # Basic Mode
|  3> #
|  4> ! Opt Freq wB97X Def2-SVP D4 SlowConv TightSCF Defgrid2 Def2/J RIJCOSX CPCM(Water)
|  5>
|  6>
|  7>
|  8> %maxcore 4500
|  9>
| 10> %geom
| 11> Maxiter 150
| 12> END
| 13>
| 14> * xyzfile 1 1 5_prot_aq_8.xyz
| 15>
| 16>                          ****END OF INPUT****
 Total Charge           Charge          ....    1
 Multiplicity           Mult            ....    1
 Number of Electrons    NEL             ....  100
Dispersion correction           -0.005611137
FINAL SINGLE POINT ENERGY      -540.692517502195
Dispersion correction            ... Starting D4
                    ***********************HURRAY********************

CARTESIAN COORDINATES (ANGSTROEM)
---------------------------------
  N     -1.088712   -0.028065   -0.287100
  C     -0.000518    0.093251    0.471990
  N      1.086900   -0.101551   -0.272760
  H     -0.000257    0.317936    1.538465
  C      0.678452   -0.357703   -1.563404
  C     -0.682282   -0.312227   -1.572087
  C     -2.491690    0.126012    0.220244
  C      2.491955   -0.024094    0.247185
  C     -3.461311   -0.081424   -0.938734
  C     -2.634634    1.539951    0.786205
  C     -2.721918   -0.933346    1.299486
  C      3.455206   -0.375290   -0.882599
  C      2.630591   -1.028955    1.391526
  C      2.736867    1.406476    0.730059
  H      1.371789   -0.554555   -2.375801
  H     -1.377100   -0.463300   -2.393075
  H     -3.369010   -1.088728   -1.371966
  H     -3.316225    0.668559   -1.730986
  H     -4.484680    0.027152   -0.552986
  H     -3.751940   -0.848459    1.675365
  H     -2.038406   -0.798439    2.151475
  H     -2.582249   -1.944420    0.887848
  H      3.665761   -1.011058    1.762269
  H      2.399653   -2.048205    1.046480
  H      1.967650   -0.780358    2.233997
  H     -2.426912    2.292335    0.010252
  H     -1.953401    1.708454    1.633964
  H     -3.664075    1.682807    1.145836
  H      3.280791   -1.393030   -1.263022
  H      4.479347   -0.332597   -0.486275
  H      3.385433    0.340311   -1.715633
  H      2.590942    2.125165   -0.090698
  H      3.771719    1.493607    1.092118
  H      2.063543    1.673701    1.558755

 Multiplicity           Mult            ....    1
 Number of Electrons    NEL             ....  100
 Basis Dimension        Dim             ....  287

ORBITAL ENERGIES
----------------

  NO   OCC          E(Eh)            E(eV)
   0   2.0000     -14.508507      -394.7965
   1   2.0000     -14.508422      -394.7942
   2   2.0000     -10.380902      -282.4787
   3   2.0000     -10.345851      -281.5249
   4   2.0000     -10.345755      -281.5223
   5   2.0000     -10.332828      -281.1705
   6   2.0000     -10.332254      -281.1549
   7   2.0000     -10.275285      -279.6047
   8   2.0000     -10.275147      -279.6010
   9   2.0000     -10.274407      -279.5808
  10   2.0000     -10.274276      -279.5773
  11   2.0000     -10.274265      -279.5770
  12   2.0000     -10.274175      -279.5745
  13   2.0000      -1.213316       -33.0160
  14   2.0000      -1.095022       -29.7971
  15   2.0000      -0.980304       -26.6754
  16   2.0000      -0.933130       -25.3918
  17   2.0000      -0.920343       -25.0438
  18   2.0000      -0.833943       -22.6928
  19   2.0000      -0.823951       -22.4208
  20   2.0000      -0.822933       -22.3931
  21   2.0000      -0.821911       -22.3653
  22   2.0000      -0.792196       -21.5567
  23   2.0000      -0.764034       -20.7904
  24   2.0000      -0.726365       -19.7654
  25   2.0000      -0.700349       -19.0575
  26   2.0000      -0.642863       -17.4932
  27   2.0000      -0.627206       -17.0671
  28   2.0000      -0.607124       -16.5207
  29   2.0000      -0.588513       -16.0143
  30   2.0000      -0.585805       -15.9406
  31   2.0000      -0.577295       -15.7090
  32   2.0000      -0.569383       -15.4937
  33   2.0000      -0.556673       -15.1478
  34   2.0000      -0.554400       -15.0860
  35   2.0000      -0.546979       -14.8841
  36   2.0000      -0.516188       -14.0462
  37   2.0000      -0.506858       -13.7923
  38   2.0000      -0.499116       -13.5816
  39   2.0000      -0.498393       -13.5620
  40   2.0000      -0.490333       -13.3426
  41   2.0000      -0.487144       -13.2559
  42   2.0000      -0.480139       -13.0652
  43   2.0000      -0.479758       -13.0549
  44   2.0000      -0.467363       -12.7176
  45   2.0000      -0.454629       -12.3711
  46   2.0000      -0.452429       -12.3112
  47   2.0000      -0.452004       -12.2997
  48   2.0000      -0.413891       -11.2625
  49   2.0000      -0.370818       -10.0905
  50   0.0000       0.058270         1.5856
  51   0.0000       0.097292         2.6474
  52   0.0000       0.129661         3.5283
  53   0.0000       0.144062         3.9201
  54   0.0000       0.158879         4.3233

MULLIKEN ATOMIC CHARGES
-----------------------
   0 N :   -0.180282
   1 C :    0.199863
   2 N :   -0.180282
   3 H :    0.145316
   4 C :    0.062287
   5 C :    0.062735
   6 C :   -0.239635
   7 C :   -0.239740
   8 C :    0.012087
   9 C :    0.034083
  10 C :    0.034982
  11 C :    0.011326
  12 C :    0.030912
  13 C :    0.037684
  14 H :    0.099386
  15 H :    0.099624
  16 H :    0.058450
  17 H :    0.058341
  18 H :    0.062626
  19 H :    0.058173
  20 H :    0.050070
  21 H :    0.053860
  22 H :    0.058620
  23 H :    0.054732
  24 H :    0.050703
  25 H :    0.054157
  26 H :    0.050070
  27 H :    0.058364
  28 H :    0.058254
  29 H :    0.062825
  30 H :    0.058874
  31 H :    0.053601
  32 H :    0.058147
  33 H :    0.049784
Sum of atomic charges:    1.0000000

LOEWDIN ATOMIC CHARGES
----------------------
   0 N :    0.101128
   1 C :    0.119562
   2 N :    0.100935
   3 H :    0.064502
   4 C :    0.013900
   5 C :    0.014156
   6 C :    0.017204
   7 C :    0.017129
   8 C :   -0.047735
   9 C :   -0.045353
  10 C :   -0.045255
  11 C :   -0.047754
  12 C :   -0.045628
  13 C :   -0.045212
  14 H :    0.059659
  15 H :    0.059772
  16 H :    0.037696
  17 H :    0.037726
  18 H :    0.047482
  19 H :    0.043740
  20 H :    0.034668
  21 H :    0.037247
  22 H :    0.044123
  23 H :    0.037458
  24 H :    0.034829
  25 H :    0.037338
  26 H :    0.034638
  27 H :    0.043793
  28 H :    0.037846
  29 H :    0.047463
  30 H :    0.037543
  31 H :    0.037136
  32 H :    0.043666
  33 H :    0.034601

  Mayer bond orders larger than 0.100000
B(  0-N ,  1-C ) :   1.3565 B(  0-N ,  5-C ) :   1.1867 B(  0-N ,  6-C ) :   0.7924
B(  1-C ,  2-N ) :   1.3569 B(  1-C ,  3-H ) :   0.9638 B(  2-N ,  4-C ) :   1.1864
B(  2-N ,  7-C ) :   0.7926 B(  4-C ,  5-C ) :   1.5653 B(  4-C , 14-H ) :   0.9832
B(  5-C , 15-H ) :   0.9832 B(  6-C ,  8-C ) :   1.0688 B(  6-C ,  9-C ) :   1.0395
B(  6-C , 10-C ) :   1.0399 B(  7-C , 11-C ) :   1.0682 B(  7-C , 12-C ) :   1.0412
B(  7-C , 13-C ) :   1.0387 B(  8-C , 16-H ) :   0.9565 B(  8-C , 17-H ) :   0.9568
B(  8-C , 18-H ) :   0.9624 B(  9-C , 25-H ) :   0.9648 B(  9-C , 26-H ) :   0.9612
B(  9-C , 27-H ) :   0.9691 B( 10-C , 19-H ) :   0.9690 B( 10-C , 20-H ) :   0.9610
B( 10-C , 21-H ) :   0.9649 B( 11-C , 28-H ) :   0.9574 B( 11-C , 29-H ) :   0.9623
B( 11-C , 30-H ) :   0.9563 B( 12-C , 22-H ) :   0.9685 B( 12-C , 23-H ) :   0.9649
B( 12-C , 24-H ) :   0.9610 B( 13-C , 31-H ) :   0.9646 B( 13-C , 32-H ) :   0.9696
B( 13-C , 33-H ) :   0.9611

Dispersion correction           -0.005611188
FINAL SINGLE POINT ENERGY      -540.692518311797

DIPOLE MOMENT
-------------
                                X             Y             Z
Electronic contribution:     -0.01268      -1.01986      -4.56792
Nuclear contribution   :      0.01207       1.01192       4.54263
                        -----------------------------------------
Total Dipole Moment    :     -0.00062      -0.00794      -0.02528
                        -----------------------------------------
Magnitude (a.u.)       :      0.02651
Magnitude (Debye)      :      0.06738

Dispersion correction in the Hessian             ... Starting D4

VIBRATIONAL FREQUENCIES
-----------------------

Scaling factor for frequencies =  1.000000000  (already applied!)

   0:         0.00 cm**-1
   1:         0.00 cm**-1
   2:         0.00 cm**-1
   3:         0.00 cm**-1
   4:         0.00 cm**-1
   5:         0.00 cm**-1
   6:        27.67 cm**-1
   7:        52.50 cm**-1
   8:        91.39 cm**-1
   9:       137.44 cm**-1
  10:       170.61 cm**-1
  11:       232.01 cm**-1
  12:       241.22 cm**-1
  13:       267.44 cm**-1
  14:       274.28 cm**-1
  15:       288.64 cm**-1
  16:       305.28 cm**-1
  17:       332.79 cm**-1
  18:       341.49 cm**-1
  19:       349.19 cm**-1
  20:       352.59 cm**-1
  21:       363.46 cm**-1
  22:       368.48 cm**-1
  23:       415.46 cm**-1
  24:       444.12 cm**-1
  25:       472.91 cm**-1
  26:       480.38 cm**-1
  27:       519.93 cm**-1
  28:       577.20 cm**-1
  29:       635.03 cm**-1
  30:       681.95 cm**-1
  31:       692.67 cm**-1
  32:       761.98 cm**-1
  33:       847.95 cm**-1
  34:       852.37 cm**-1
  35:       907.39 cm**-1
  36:       915.57 cm**-1
  37:       947.65 cm**-1
  38:       951.32 cm**-1
  39:       957.49 cm**-1
  40:       958.18 cm**-1
  41:       971.85 cm**-1
  42:       975.51 cm**-1
  43:      1022.76 cm**-1
  44:      1037.11 cm**-1
  45:      1051.46 cm**-1
  46:      1054.48 cm**-1
  47:      1058.73 cm**-1
  48:      1059.81 cm**-1
  49:      1117.48 cm**-1
  50:      1152.26 cm**-1
  51:      1221.54 cm**-1
  52:      1234.86 cm**-1
  53:      1273.46 cm**-1
  54:      1273.89 cm**-1
  55:      1279.40 cm**-1
  56:      1281.01 cm**-1
  57:      1306.68 cm**-1
  58:      1363.30 cm**-1
  59:      1396.79 cm**-1
  60:      1397.22 cm**-1
  61:      1398.08 cm**-1
  62:      1402.66 cm**-1
  63:      1413.49 cm**-1
  64:      1414.77 cm**-1
  65:      1444.01 cm**-1
  66:      1445.28 cm**-1
  67:      1447.22 cm**-1
  68:      1448.13 cm**-1
  69:      1448.36 cm**-1
  70:      1451.53 cm**-1
  71:      1452.93 cm**-1
  72:      1459.50 cm**-1
  73:      1470.33 cm**-1
  74:      1472.42 cm**-1
  75:      1472.96 cm**-1
  76:      1479.68 cm**-1
  77:      1481.61 cm**-1
  78:      1492.94 cm**-1
  79:      1636.40 cm**-1
  80:      1639.02 cm**-1
  81:      3070.87 cm**-1
  82:      3071.43 cm**-1
  83:      3072.83 cm**-1
  84:      3073.32 cm**-1
  85:      3076.80 cm**-1
  86:      3076.99 cm**-1
  87:      3176.03 cm**-1
  88:      3176.93 cm**-1
  89:      3178.84 cm**-1
  90:      3179.14 cm**-1
  91:      3179.37 cm**-1
  92:      3179.45 cm**-1
  93:      3184.28 cm**-1
  94:      3184.44 cm**-1
  95:      3185.01 cm**-1
  96:      3185.21 cm**-1
  97:      3189.75 cm**-1
  98:      3190.03 cm**-1
  99:      3309.76 cm**-1
 100:      3324.24 cm**-1
 101:      3340.97 cm**-1

IR SPECTRUM
-----------

 Mode   freq       eps      Int      T**2         TX        TY        TZ
       cm**-1   L/(mol*cm) km/mol    a.u.
----------------------------------------------------------------------------
  6:     27.67   0.000000    0.00  0.000004  ( 0.000747  0.001711 -0.000170)
  7:     52.50   0.000002    0.01  0.000012  ( 0.001038 -0.000210  0.003373)
  8:     91.39   0.000014    0.07  0.000049  ( 0.000114  0.006979  0.000605)
  9:    137.44   0.000017    0.08  0.000038  (-0.000062  0.001597  0.005948)
 10:    170.61   0.000000    0.00  0.000001  (-0.000676 -0.000100  0.000248)
 11:    232.01   0.000006    0.03  0.000007  (-0.001516  0.002191  0.000618)
 12:    241.22   0.000003    0.01  0.000004  ( 0.000766  0.000788 -0.001530)
 13:    267.44   0.000001    0.01  0.000002  (-0.001189 -0.000460 -0.000188)
 14:    274.28   0.000049    0.25  0.000056  ( 0.001414  0.001326  0.007199)
 15:    288.64   0.000027    0.14  0.000030  ( 0.005362 -0.000146 -0.000898)
 16:    305.28   0.000001    0.01  0.000001  (-0.000478  0.000911 -0.000127)
 17:    332.79   0.000018    0.09  0.000017  (-0.000145 -0.000494  0.004069)
 18:    341.49   0.000006    0.03  0.000006  (-0.000385  0.002309  0.000210)
 19:    349.19   0.000047    0.24  0.000042  ( 0.000522 -0.006419  0.000928)
 20:    352.59   0.000056    0.28  0.000049  (-0.000917 -0.006849  0.001250)
 21:    363.46   0.000000    0.00  0.000000  (-0.000356  0.000170 -0.000365)
 22:    368.48   0.000005    0.02  0.000004  ( 0.000814  0.001778 -0.000078)
 23:    415.46   0.000015    0.08  0.000011  ( 0.003320 -0.000494 -0.000391)
 24:    444.12   0.000016    0.08  0.000011  (-0.000519  0.003259 -0.000342)
 25:    472.91   0.000012    0.06  0.000008  ( 0.000184 -0.000978 -0.002601)
 26:    480.38   0.000001    0.01  0.000001  ( 0.000685  0.000424  0.000305)
 27:    519.93   0.000040    0.20  0.000024  (-0.004874 -0.000520  0.000103)
 28:    577.20   0.000143    0.72  0.000077  (-0.000538 -0.001307 -0.008676)
 29:    635.03   0.001901    9.61  0.000934  (-0.030543  0.001051 -0.000399)
 30:    681.95   0.000018    0.09  0.000008  ( 0.000215 -0.002853  0.000151)
 31:    692.67   0.013447   67.96  0.006058  ( 0.001199  0.076081 -0.016388)
 32:    761.98   0.010894   55.06  0.004462  ( 0.003492  0.065508 -0.012579)
 33:    847.95   0.000007    0.04  0.000003  (-0.001146  0.000012 -0.001139)
 34:    852.37   0.000273    1.38  0.000100  ( 0.009930 -0.001132 -0.000263)
 35:    907.39   0.004805   24.28  0.001652  (-0.001879 -0.039633  0.008840)
 36:    915.57   0.000012    0.06  0.000004  (-0.001534  0.001092 -0.000756)
 37:    947.65   0.000605    3.06  0.000199  ( 0.002393 -0.013831  0.001475)
 38:    951.32   0.000652    3.30  0.000214  ( 0.002011  0.014483 -0.000440)
 39:    957.49   0.000527    2.66  0.000172  (-0.012872  0.001980  0.001477)
 40:    958.18   0.001160    5.86  0.000378  ( 0.001262  0.001795  0.019317)
 41:    971.85   0.000036    0.18  0.000012  ( 0.000384 -0.003286  0.000813)
 42:    975.51   0.000141    0.71  0.000045  ( 0.000434 -0.006363  0.002137)
 43:   1022.76   0.001548    7.82  0.000472  (-0.021709  0.000855 -0.000499)
 44:   1037.11   0.000105    0.53  0.000032  (-0.000351 -0.000316 -0.005600)
 45:   1051.46   0.000051    0.26  0.000015  ( 0.003074 -0.000212  0.002384)
 46:   1054.48   0.000046    0.23  0.000014  ( 0.003240  0.000573 -0.001661)
 47:   1058.73   0.000002    0.01  0.000001  (-0.000485  0.000369 -0.000407)
 48:   1059.81   0.000244    1.23  0.000072  (-0.001052  0.008245 -0.001683)
 49:   1117.48   0.005301   26.79  0.001480  ( 0.005069  0.006836  0.037521)
 50:   1152.26   0.014764   74.61  0.003998  (-0.063066  0.002933  0.003535)
 51:   1221.54   0.002808   14.19  0.000717  (-0.003698 -0.006217 -0.025790)
 52:   1234.86   0.073993  373.93  0.018699  ( 0.136691 -0.003779 -0.000260)
 53:   1273.46   0.001326    6.70  0.000325  ( 0.017957  0.001389 -0.000705)
 54:   1273.89   0.000719    3.64  0.000176  ( 0.001981  0.000531  0.013116)
 55:   1279.40   0.001403    7.09  0.000342  (-0.003871  0.017728 -0.003586)
 56:   1281.01   0.005496   27.78  0.001339  (-0.000379 -0.035842  0.007361)
 57:   1306.68   0.001435    7.25  0.000343  ( 0.018486  0.000312  0.000944)
 58:   1363.30   0.006219   31.43  0.001424  ( 0.000532  0.008281  0.036807)
 59:   1396.79   0.002690   13.59  0.000601  (-0.002511 -0.024292  0.002121)
 60:   1397.22   0.007644   38.63  0.001707  (-0.006061  0.040034  0.008242)
 61:   1398.08   0.007752   39.17  0.001730  ( 0.011587  0.009850 -0.038717)
 62:   1402.66   0.004272   21.59  0.000951  ( 0.024997  0.000775  0.018029)
 63:   1413.49   0.000911    4.61  0.000201  ( 0.013397  0.000871  0.004578)
 64:   1414.77   0.001632    8.25  0.000360  ( 0.018967  0.000319  0.000181)
 65:   1444.01   0.000093    0.47  0.000020  ( 0.001427  0.002756 -0.003221)
 66:   1445.28   0.000053    0.27  0.000011  ( 0.000578  0.002916  0.001595)
 67:   1447.22   0.000102    0.51  0.000022  ( 0.000449 -0.002362  0.004018)
 68:   1448.13   0.000322    1.63  0.000069  (-0.008315 -0.000269 -0.000296)
 69:   1448.36   0.000025    0.13  0.000005  ( 0.002054  0.000161  0.001103)
 70:   1451.53   0.000105    0.53  0.000022  ( 0.000602 -0.002096 -0.004208)
 71:   1452.93   0.000273    1.38  0.000059  ( 0.005454  0.000819  0.005314)
 72:   1459.50   0.006893   34.84  0.001474  (-0.000316  0.008427  0.037453)
 73:   1470.33   0.001425    7.20  0.000302  ( 0.004148 -0.015826  0.005902)
 74:   1472.42   0.000477    2.41  0.000101  ( 0.008719 -0.002702 -0.004214)
 75:   1472.96   0.001964    9.92  0.000416  ( 0.002463  0.019536 -0.005322)
 76:   1479.68   0.002037   10.29  0.000430  ( 0.019939  0.004413  0.003548)
 77:   1481.61   0.001304    6.59  0.000275  (-0.014895  0.002646  0.006773)
 78:   1492.94   0.000007    0.04  0.000002  ( 0.000578  0.000608  0.000900)
 79:   1636.40   0.028553  144.30  0.005445  ( 0.073752 -0.002330 -0.000574)
 80:   1639.02   0.001968    9.94  0.000375  (-0.005033 -0.003602 -0.018340)
 81:   3070.87   0.003188   16.11  0.000324  (-0.000114 -0.017826 -0.002500)
 82:   3071.43   0.002930   14.81  0.000298  (-0.000627 -0.017062  0.002495)
 83:   3072.83   0.002946   14.89  0.000299  (-0.002969 -0.001693 -0.016955)
 84:   3073.32   0.002853   14.42  0.000290  (-0.003552 -0.003571  0.016257)
 85:   3076.80   0.000343    1.73  0.000035  (-0.004827 -0.000491 -0.003358)
 86:   3076.99   0.000379    1.92  0.000038  ( 0.004579 -0.003318 -0.002545)
 87:   3176.03   0.001874    9.47  0.000184  (-0.005889 -0.004576  0.011337)
 88:   3176.93   0.000678    3.43  0.000067  ( 0.001567 -0.007083  0.003742)
 89:   3178.84   0.005279   26.68  0.000518  ( 0.008562  0.006368  0.020108)
 90:   3179.14   0.002225   11.24  0.000218  ( 0.006025  0.011014 -0.007798)
 91:   3179.37   0.002239   11.32  0.000220  (-0.000449  0.013779 -0.005453)
 92:   3179.45   0.003453   17.45  0.000339  (-0.008656  0.014012  0.008229)
 93:   3184.28   0.001421    7.18  0.000139  ( 0.000967  0.011606 -0.001899)
 94:   3184.44   0.001447    7.31  0.000142  ( 0.002779 -0.011284  0.002592)
 95:   3185.01   0.001071    5.41  0.000105  (-0.009660 -0.000775 -0.003325)
 96:   3185.21   0.001042    5.26  0.000102  ( 0.009548  0.000092 -0.003301)
 97:   3189.75   0.005848   29.55  0.000572  (-0.022175  0.002938  0.008472)
 98:   3190.03   0.004241   21.43  0.000415  ( 0.016864  0.003142  0.010980)
 99:   3309.76   0.010971   55.44  0.001034  (-0.000093 -0.006626 -0.031473)
100:   3324.24   0.006320   31.94  0.000593  ( 0.024344 -0.000712  0.000350)
101:   3340.97   0.003618   18.28  0.000338  (-0.000576  0.004062  0.017919)

--------------------------
THERMOCHEMISTRY AT 298.15K
--------------------------

Temperature         ... 298.15 K
Pressure            ... 1.00 atm
Total Mass          ... 181.30 AMU

Throughout the following assumptions are being made:
  (1) The electronic state is orbitally nondegenerate
  (2) There are no thermally accessible electronically excited states
  (3) Hindered rotations indicated by low frequency modes are not
      treated as such but are treated as vibrations and this may
      cause some error
  (4) All equations used are the standard statistical mechanics
      equations for an ideal gas
  (5) All vibrations are strictly harmonic

freq.      27.67  E(vib)   ...       0.55
freq.      52.50  E(vib)   ...       0.52
freq.      91.39  E(vib)   ...       0.47
freq.     137.44  E(vib)   ...       0.42
freq.     170.61  E(vib)   ...       0.38
freq.     232.01  E(vib)   ...       0.32
freq.     241.22  E(vib)   ...       0.31
freq.     267.44  E(vib)   ...       0.29
freq.     274.28  E(vib)   ...       0.28
freq.     288.64  E(vib)   ...       0.27
freq.     305.28  E(vib)   ...       0.26
freq.     332.79  E(vib)   ...       0.24
freq.     341.49  E(vib)   ...       0.23
freq.     349.19  E(vib)   ...       0.23
freq.     352.59  E(vib)   ...       0.22
freq.     363.46  E(vib)   ...       0.22
freq.     368.48  E(vib)   ...       0.21
freq.     415.46  E(vib)   ...       0.18
freq.     444.12  E(vib)   ...       0.17
freq.     472.91  E(vib)   ...       0.15
freq.     480.38  E(vib)   ...       0.15
freq.     519.93  E(vib)   ...       0.13
freq.     577.20  E(vib)   ...       0.11
freq.     635.03  E(vib)   ...       0.09
freq.     681.95  E(vib)   ...       0.08
freq.     692.67  E(vib)   ...       0.07
freq.     761.98  E(vib)   ...       0.06
freq.     847.95  E(vib)   ...       0.04
freq.     852.37  E(vib)   ...       0.04
freq.     907.39  E(vib)   ...       0.03
freq.     915.57  E(vib)   ...       0.03
freq.     947.65  E(vib)   ...       0.03
freq.     951.32  E(vib)   ...       0.03
freq.     957.49  E(vib)   ...       0.03
freq.     958.18  E(vib)   ...       0.03
freq.     971.85  E(vib)   ...       0.03
freq.     975.51  E(vib)   ...       0.03
freq.    1022.76  E(vib)   ...       0.02
freq.    1037.11  E(vib)   ...       0.02
freq.    1051.46  E(vib)   ...       0.02
freq.    1054.48  E(vib)   ...       0.02
freq.    1058.73  E(vib)   ...       0.02
freq.    1059.81  E(vib)   ...       0.02
freq.    1117.48  E(vib)   ...       0.01
freq.    1152.26  E(vib)   ...       0.01
freq.    1221.54  E(vib)   ...       0.01
freq.    1234.86  E(vib)   ...       0.01
freq.    1273.46  E(vib)   ...       0.01
freq.    1273.89  E(vib)   ...       0.01
freq.    1279.40  E(vib)   ...       0.01
freq.    1281.01  E(vib)   ...       0.01
freq.    1306.68  E(vib)   ...       0.01
freq.    1363.30  E(vib)   ...       0.01
freq.    1396.79  E(vib)   ...       0.00
freq.    1397.22  E(vib)   ...       0.00
freq.    1398.08  E(vib)   ...       0.00
freq.    1402.66  E(vib)   ...       0.00
freq.    1413.49  E(vib)   ...       0.00
freq.    1414.77  E(vib)   ...       0.00
freq.    1444.01  E(vib)   ...       0.00
freq.    1445.28  E(vib)   ...       0.00
freq.    1447.22  E(vib)   ...       0.00
freq.    1448.13  E(vib)   ...       0.00
freq.    1448.36  E(vib)   ...       0.00
freq.    1451.53  E(vib)   ...       0.00
freq.    1452.93  E(vib)   ...       0.00
freq.    1459.50  E(vib)   ...       0.00
freq.    1470.33  E(vib)   ...       0.00
freq.    1472.42  E(vib)   ...       0.00
freq.    1472.96  E(vib)   ...       0.00
freq.    1479.68  E(vib)   ...       0.00
freq.    1481.61  E(vib)   ...       0.00
freq.    1492.94  E(vib)   ...       0.00
freq.    1636.40  E(vib)   ...       0.00
freq.    1639.02  E(vib)   ...       0.00
freq.    3070.87  E(vib)   ...       0.00
freq.    3071.43  E(vib)   ...       0.00
freq.    3072.83  E(vib)   ...       0.00
freq.    3073.32  E(vib)   ...       0.00
freq.    3076.80  E(vib)   ...       0.00
freq.    3076.99  E(vib)   ...       0.00
freq.    3176.03  E(vib)   ...       0.00
freq.    3176.93  E(vib)   ...       0.00
freq.    3178.84  E(vib)   ...       0.00
freq.    3179.14  E(vib)   ...       0.00
freq.    3179.37  E(vib)   ...       0.00
freq.    3179.45  E(vib)   ...       0.00
freq.    3184.28  E(vib)   ...       0.00
freq.    3184.44  E(vib)   ...       0.00
freq.    3185.01  E(vib)   ...       0.00
freq.    3185.21  E(vib)   ...       0.00
freq.    3189.75  E(vib)   ...       0.00
freq.    3190.03  E(vib)   ...       0.00
freq.    3309.76  E(vib)   ...       0.00
freq.    3324.24  E(vib)   ...       0.00
freq.    3340.97  E(vib)   ...       0.00

------------
INNER ENERGY
------------

The inner energy is: U= E(el) + E(ZPE) + E(vib) + E(rot) + E(trans)
    E(el)   - is the total energy from the electronic structure calculation
              = E(kin-el) + E(nuc-el) + E(el-el) + E(nuc-nuc)
    E(ZPE)  - the the zero temperature vibrational energy from the frequency calculation
    E(vib)  - the the finite temperature correction to E(ZPE) due to population
              of excited vibrational states
    E(rot)  - is the rotational thermal energy
    E(trans)- is the translational thermal energy

Summary of contributions to the inner energy U:
Electronic energy                ...   -540.69251831 Eh
Zero point energy                ...      0.31147707 Eh     195.45 kcal/mol
Thermal vibrational correction   ...      0.01151852 Eh       7.23 kcal/mol
Thermal rotational correction    ...      0.00141627 Eh       0.89 kcal/mol
Thermal translational correction ...      0.00141627 Eh       0.89 kcal/mol
-----------------------------------------------------------------------
Total thermal energy                   -540.36669018 Eh

Summary of corrections to the electronic energy:
(perhaps to be used in another calculation)
Total thermal correction                  0.01435106 Eh       9.01 kcal/mol
Non-thermal (ZPE) correction              0.31147707 Eh     195.45 kcal/mol
-----------------------------------------------------------------------
Total correction                          0.32582813 Eh     204.46 kcal/mol

--------
ENTHALPY
--------

The enthalpy is H = U + kB*T
                kB is Boltzmann's constant
Total free energy                 ...   -540.36669018 Eh
Thermal Enthalpy correction       ...      0.00094421 Eh       0.59 kcal/mol
-----------------------------------------------------------------------
Total Enthalpy                    ...   -540.36574597 Eh

Note: Only C1 symmetry has been detected, increase convergence thresholds
      if your molecule has a higher symmetry. Symmetry factor of 1.0 is
      used for the rotational entropy correction.

Rotational constants in cm-1:     0.054841     0.014978     0.013949

                             ****ORCA TERMINATED NORMALLY****
TOTAL RUN TIME: 0 days 1 hours 2 minutes 18 seconds 272 msec
