                         Program Version 5.0.4 -  RELEASE  -
|  1> # ORCA 5.0.4 - /users/bwb16179/postgrad/2024_03/DFT_Crest_Conformers/Opt/deprot/6_deprot_aq_4.inp # write input file
|  2> # Basic Mode
|  3> #
|  4> ! Opt Freq wB97X Def2-SVP D4 SlowConv TightSCF Defgrid2 Def2/J RIJCOSX CPCM(Water)
|  5>
|  6>
|  7>
|  8> %maxcore 4500
|  9>
| 10> %geom
| 11> Maxiter 150
| 12> END
| 13>
| 14> * xyzfile 0 1 6_deprot_aq_4.xyz
| 15>
| 16>                          ****END OF INPUT****
 Total Charge           Charge          ....    0
 Multiplicity           Mult            ....    1
 Number of Electrons    NEL             ....  100
Dispersion correction           -0.005787744
FINAL SINGLE POINT ENERGY      -540.191085274155
Dispersion correction            ... Starting D4
Dispersion correction           -0.005752932
FINAL SINGLE POINT ENERGY      -540.195098689118
Dispersion correction            ... Starting D4
Dispersion correction           -0.005750060
FINAL SINGLE POINT ENERGY      -540.195411100775
Dispersion correction            ... Starting D4
FINAL SINGLE POINT ENERGY      -540.195502491005
FINAL SINGLE POINT ENERGY      -540.195522094566
FINAL SINGLE POINT ENERGY      -540.195533388884
Dispersion correction           -0.005751347
FINAL SINGLE POINT ENERGY      -540.195539082625
Dispersion correction            ... Starting D4
Dispersion correction           -0.005751125
FINAL SINGLE POINT ENERGY      -540.195540711073
Dispersion correction            ... Starting D4
                    ***********************HURRAY********************

CARTESIAN COORDINATES (ANGSTROEM)
---------------------------------
  N     -0.981414   -0.312158    0.180726
  C      0.157593   -1.035948    0.337413
  N      1.139100   -0.123078    0.137907
  C      0.636860    1.141792   -0.160624
  C     -0.721249    1.026973   -0.130053
  C     -2.294350   -0.966266    0.258831
  C      2.568310   -0.458656    0.127497
  C     -3.224861   -0.326443    1.284811
  H     -2.044279   -1.975692    0.616894
  C     -2.936417   -1.110075   -1.118693
  H      3.106331    0.495157    0.239178
  C      2.957067   -1.077754   -1.211627
  C      2.940933   -1.345131    1.307821
  C      1.502022    2.327574   -0.434999
  C     -1.749268    2.094579   -0.332351
  H     -3.217093   -0.136114   -1.548654
  H     -3.851256   -1.717679   -1.043966
  H     -2.245747   -1.610148   -1.814828
  H     -3.602744    0.652355    0.954906
  H     -2.713906   -0.198106    2.251350
  H     -4.095056   -0.981190    1.443560
  H      4.029083   -1.509684    1.320632
  H      2.439254   -2.321206    1.238084
  H      2.648703   -0.874325    2.258877
  H      2.418461   -2.027357   -1.360703
  H      4.038626   -1.280034   -1.245920
  H      2.705047   -0.403271   -2.045066
  H     -2.228446    2.392250    0.613792
  H     -2.544746    1.783789   -1.025020
  H     -1.272993    2.989069   -0.756885
  H      2.190043    2.142060   -1.275518
  H      2.113439    2.598586    0.440883
  H      0.883839    3.198168   -0.692232

 Multiplicity           Mult            ....    1
 Number of Electrons    NEL             ....  100
 Basis Dimension        Dim             ....  282

ORBITAL ENERGIES
----------------

  NO   OCC          E(Eh)            E(eV)
   0   2.0000     -14.439900      -392.9297
   1   2.0000     -14.438500      -392.8916
   2   2.0000     -10.306734      -280.4605
   3   2.0000     -10.305996      -280.4404
   4   2.0000     -10.292173      -280.0643
   5   2.0000     -10.291382      -280.0427
   6   2.0000     -10.273110      -279.5455
   7   2.0000     -10.272445      -279.5275
   8   2.0000     -10.269491      -279.4471
   9   2.0000     -10.261348      -279.2255
  10   2.0000     -10.261195      -279.2213
  11   2.0000     -10.260345      -279.1982
  12   2.0000     -10.259046      -279.1628
  13   2.0000      -1.139916       -31.0187
  14   2.0000      -1.035328       -28.1727
  15   2.0000      -0.934640       -25.4328
  16   2.0000      -0.902042       -24.5458
  17   2.0000      -0.884988       -24.0818
  18   2.0000      -0.841768       -22.9057
  19   2.0000      -0.806786       -21.9538
  20   2.0000      -0.804963       -21.9042
  21   2.0000      -0.786527       -21.4025
  22   2.0000      -0.758014       -20.6266
  23   2.0000      -0.707171       -19.2431
  24   2.0000      -0.666544       -18.1376
  25   2.0000      -0.657887       -17.9020
  26   2.0000      -0.604670       -16.4539
  27   2.0000      -0.582093       -15.8396
  28   2.0000      -0.572609       -15.5815
  29   2.0000      -0.554209       -15.0808
  30   2.0000      -0.547895       -14.9090
  31   2.0000      -0.534530       -14.5453
  32   2.0000      -0.532567       -14.4919
  33   2.0000      -0.526074       -14.3152
  34   2.0000      -0.513332       -13.9685
  35   2.0000      -0.507947       -13.8219
  36   2.0000      -0.504024       -13.7152
  37   2.0000      -0.491309       -13.3692
  38   2.0000      -0.489792       -13.3279
  39   2.0000      -0.482438       -13.1278
  40   2.0000      -0.474517       -12.9123
  41   2.0000      -0.466111       -12.6835
  42   2.0000      -0.463404       -12.6099
  43   2.0000      -0.453410       -12.3379
  44   2.0000      -0.441316       -12.0088
  45   2.0000      -0.435662       -11.8550
  46   2.0000      -0.426806       -11.6140
  47   2.0000      -0.361546        -9.8382
  48   2.0000      -0.316749        -8.6192
  49   2.0000      -0.303034        -8.2460
  50   0.0000       0.129452         3.5226
  51   0.0000       0.132647         3.6095
  52   0.0000       0.140176         3.8144
  53   0.0000       0.151544         4.1237
  54   0.0000       0.171294         4.6612

MULLIKEN ATOMIC CHARGES
-----------------------
   0 N :   -0.217200
   1 C :   -0.214819
   2 N :   -0.224560
   3 C :   -0.115947
   4 C :   -0.117454
   5 C :    0.006349
   6 C :   -0.006760
   7 C :   -0.015402
   8 H :    0.021428
   9 C :   -0.005636
  10 H :    0.036017
  11 C :    0.001490
  12 C :   -0.001746
  13 C :    0.073070
  14 C :    0.072590
  15 H :    0.029637
  16 H :    0.042742
  17 H :    0.034265
  18 H :    0.028717
  19 H :    0.039204
  20 H :    0.044068
  21 H :    0.039283
  22 H :    0.025701
  23 H :    0.033667
  24 H :    0.026291
  25 H :    0.040834
  26 H :    0.034695
  27 H :    0.060277
  28 H :    0.043337
  29 H :    0.037088
  30 H :    0.051969
  31 H :    0.059765
  32 H :    0.037043
Sum of atomic charges:    0.0000000

LOEWDIN ATOMIC CHARGES
----------------------
   0 N :    0.027276
   1 C :   -0.317178
   2 N :    0.026923
   3 C :   -0.043931
   4 C :   -0.048349
   5 C :    0.027078
   6 C :    0.030477
   7 C :   -0.062962
   8 H :    0.026978
   9 C :   -0.061975
  10 H :    0.030709
  11 C :   -0.059881
  12 C :   -0.058263
  13 C :   -0.060382
  14 C :   -0.059235
  15 H :    0.026125
  16 H :    0.035494
  17 H :    0.028941
  18 H :    0.026894
  19 H :    0.030825
  20 H :    0.036853
  21 H :    0.032738
  22 H :    0.022630
  23 H :    0.028703
  24 H :    0.025282
  25 H :    0.033091
  26 H :    0.028380
  27 H :    0.040512
  28 H :    0.036546
  29 H :    0.043013
  30 H :    0.040908
  31 H :    0.042605
  32 H :    0.043174

  Mayer bond orders larger than 0.100000
B(  0-N ,  1-C ) :   1.2453 B(  0-N ,  4-C ) :   1.1154 B(  0-N ,  5-C ) :   0.9176
B(  1-C ,  2-N ) :   1.2481 B(  2-N ,  3-C ) :   1.1303 B(  2-N ,  6-C ) :   0.9042
B(  3-C ,  4-C ) :   1.6548 B(  3-C , 13-C ) :   1.0916 B(  4-C , 14-C ) :   1.0899
B(  5-C ,  7-C ) :   1.0683 B(  5-C ,  8-H ) :   0.9274 B(  5-C ,  9-C ) :   1.0724
B(  6-C , 10-H ) :   0.9387 B(  6-C , 11-C ) :   1.0740 B(  6-C , 12-C ) :   1.0717
B(  7-C , 18-H ) :   0.9645 B(  7-C , 19-H ) :   0.9678 B(  7-C , 20-H ) :   0.9683
B(  9-C , 15-H ) :   0.9627 B(  9-C , 16-H ) :   0.9699 B(  9-C , 17-H ) :   0.9659
B( 11-C , 24-H ) :   0.9637 B( 11-C , 25-H ) :   0.9720 B( 11-C , 26-H ) :   0.9662
B( 12-C , 21-H ) :   0.9693 B( 12-C , 22-H ) :   0.9624 B( 12-C , 23-H ) :   0.9693
B( 13-C , 30-H ) :   0.9482 B( 13-C , 31-H ) :   0.9479 B( 13-C , 32-H ) :   0.9434
B( 14-C , 27-H ) :   0.9487 B( 14-C , 28-H ) :   0.9485 B( 14-C , 29-H ) :   0.9423

Dispersion correction           -0.005751136
FINAL SINGLE POINT ENERGY      -540.195542269190

DIPOLE MOMENT
-------------
                                X             Y             Z
Electronic contribution:      0.94312       0.29019       1.15680
Nuclear contribution   :     -1.06086       1.30763      -1.56500
                        -----------------------------------------
Total Dipole Moment    :     -0.11774       1.59782      -0.40820
                        -----------------------------------------
Magnitude (a.u.)       :      1.65334
Magnitude (Debye)      :      4.20244

Dispersion correction in the Hessian             ... Starting D4

VIBRATIONAL FREQUENCIES
-----------------------

Scaling factor for frequencies =  1.000000000  (already applied!)

   0:         0.00 cm**-1
   1:         0.00 cm**-1
   2:         0.00 cm**-1
   3:         0.00 cm**-1
   4:         0.00 cm**-1
   5:         0.00 cm**-1
   6:       -14.53 cm**-1 ***imaginary mode***
   7:        53.51 cm**-1
   8:        99.30 cm**-1
   9:       104.27 cm**-1
  10:       152.75 cm**-1
  11:       167.50 cm**-1
  12:       205.77 cm**-1
  13:       217.96 cm**-1
  14:       225.32 cm**-1
  15:       228.91 cm**-1
  16:       239.08 cm**-1
  17:       249.51 cm**-1
  18:       264.11 cm**-1
  19:       283.71 cm**-1
  20:       284.40 cm**-1
  21:       319.24 cm**-1
  22:       338.95 cm**-1
  23:       393.35 cm**-1
  24:       417.03 cm**-1
  25:       474.23 cm**-1
  26:       493.79 cm**-1
  27:       552.26 cm**-1
  28:       585.77 cm**-1
  29:       662.58 cm**-1
  30:       681.92 cm**-1
  31:       701.98 cm**-1
  32:       746.17 cm**-1
  33:       795.96 cm**-1
  34:       912.93 cm**-1
  35:       927.22 cm**-1
  36:       930.16 cm**-1
  37:       933.85 cm**-1
  38:       954.94 cm**-1
  39:       961.89 cm**-1
  40:       972.13 cm**-1
  41:      1037.09 cm**-1
  42:      1048.31 cm**-1
  43:      1061.51 cm**-1
  44:      1095.46 cm**-1
  45:      1125.43 cm**-1
  46:      1161.01 cm**-1
  47:      1170.18 cm**-1
  48:      1170.77 cm**-1
  49:      1189.11 cm**-1
  50:      1215.74 cm**-1
  51:      1252.69 cm**-1
  52:      1331.23 cm**-1
  53:      1346.79 cm**-1
  54:      1351.49 cm**-1
  55:      1360.49 cm**-1
  56:      1392.07 cm**-1
  57:      1394.36 cm**-1
  58:      1396.56 cm**-1
  59:      1398.63 cm**-1
  60:      1399.78 cm**-1
  61:      1407.08 cm**-1
  62:      1429.74 cm**-1
  63:      1434.40 cm**-1
  64:      1443.01 cm**-1
  65:      1443.53 cm**-1
  66:      1444.13 cm**-1
  67:      1447.27 cm**-1
  68:      1448.17 cm**-1
  69:      1449.20 cm**-1
  70:      1450.60 cm**-1
  71:      1457.00 cm**-1
  72:      1463.22 cm**-1
  73:      1465.78 cm**-1
  74:      1466.25 cm**-1
  75:      1476.33 cm**-1
  76:      1482.29 cm**-1
  77:      1488.53 cm**-1
  78:      1746.18 cm**-1
  79:      3060.31 cm**-1
  80:      3064.20 cm**-1
  81:      3067.54 cm**-1
  82:      3071.48 cm**-1
  83:      3073.13 cm**-1
  84:      3077.21 cm**-1
  85:      3124.44 cm**-1
  86:      3129.88 cm**-1
  87:      3148.99 cm**-1
  88:      3163.48 cm**-1
  89:      3164.81 cm**-1
  90:      3169.59 cm**-1
  91:      3171.31 cm**-1
  92:      3172.06 cm**-1
  93:      3172.27 cm**-1
  94:      3173.64 cm**-1
  95:      3183.34 cm**-1
  96:      3183.61 cm**-1
  97:      3186.23 cm**-1
  98:      3190.71 cm**-1

IR SPECTRUM
-----------

 Mode   freq       eps      Int      T**2         TX        TY        TZ
       cm**-1   L/(mol*cm) km/mol    a.u.
----------------------------------------------------------------------------
  7:     53.51   0.000180    0.91  0.001052  ( 0.002963  0.006681  0.031598)
  8:     99.30   0.000836    4.23  0.002628  (-0.007275  0.012037  0.049296)
  9:    104.27   0.000893    4.51  0.002674  ( 0.001611  0.015268  0.049376)
 10:    152.75   0.000108    0.55  0.000221  (-0.001942  0.011014 -0.009814)
 11:    167.50   0.000341    1.73  0.000636  (-0.006140 -0.023289  0.007484)
 12:    205.77   0.000097    0.49  0.000147  (-0.011744 -0.002476 -0.001838)
 13:    217.96   0.000012    0.06  0.000017  ( 0.000839  0.003832 -0.001093)
 14:    225.32   0.000003    0.02  0.000004  ( 0.001047  0.001323 -0.001151)
 15:    228.91   0.000058    0.29  0.000079  (-0.000438  0.003803 -0.007996)
 16:    239.08   0.000529    2.67  0.000691  (-0.025133 -0.003580 -0.006802)
 17:    249.51   0.000072    0.37  0.000091  ( 0.005550 -0.007550 -0.001657)
 18:    264.11   0.000045    0.23  0.000053  ( 0.006104 -0.003871 -0.000887)
 19:    283.71   0.000123    0.62  0.000136  ( 0.005690  0.010044  0.001506)
 20:    284.40   0.000202    1.02  0.000221  (-0.001813 -0.009091 -0.011640)
 21:    319.24   0.000139    0.70  0.000136  ( 0.009895  0.006039 -0.001392)
 22:    338.95   0.000614    3.10  0.000565  (-0.022748  0.003580 -0.005902)
 23:    393.35   0.002916   14.74  0.002314  (-0.002235  0.007867  0.047400)
 24:    417.03   0.001342    6.78  0.001004  (-0.002400  0.010683  0.029740)
 25:    474.23   0.000734    3.71  0.000483  (-0.021690 -0.003093  0.001747)
 26:    493.79   0.000067    0.34  0.000042  ( 0.005223  0.003880  0.000252)
 27:    552.26   0.000510    2.58  0.000288  (-0.008098 -0.014110  0.004840)
 28:    585.77   0.000780    3.94  0.000416  (-0.019363  0.006198 -0.001516)
 29:    662.58   0.000066    0.34  0.000031  ( 0.002436 -0.002011 -0.004613)
 30:    681.92   0.000063    0.32  0.000029  ( 0.001068  0.001307  0.005119)
 31:    701.98   0.000175    0.88  0.000078  (-0.008339  0.001839  0.002164)
 32:    746.17   0.001759    8.89  0.000736  ( 0.009485 -0.024997  0.004556)
 33:    795.96   0.000923    4.66  0.000362  (-0.019001  0.000261  0.000779)
 34:    912.93   0.000295    1.49  0.000101  (-0.005652  0.008235 -0.001047)
 35:    927.22   0.000958    4.84  0.000322  (-0.006432 -0.006543  0.015435)
 36:    930.16   0.000460    2.32  0.000154  (-0.010460  0.000279  0.006697)
 37:    933.85   0.001506    7.61  0.000503  ( 0.019134  0.010359  0.005459)
 38:    954.94   0.000079    0.40  0.000026  (-0.000995 -0.003363 -0.003666)
 39:    961.89   0.000093    0.47  0.000030  (-0.001394 -0.001009  0.005207)
 40:    972.13   0.000156    0.79  0.000050  (-0.000992  0.006589 -0.002398)
 41:   1037.09   0.001251    6.32  0.000376  (-0.004818  0.011847  0.014589)
 42:   1048.31   0.003811   19.26  0.001134  ( 0.026985  0.019193 -0.006152)
 43:   1061.51   0.000718    3.63  0.000211  (-0.014122 -0.002476 -0.002329)
 44:   1095.46   0.003288   16.62  0.000937  (-0.021547  0.021178 -0.004892)
 45:   1125.43   0.007010   35.43  0.001944  (-0.042220 -0.012379  0.002827)
 46:   1161.01   0.000633    3.20  0.000170  (-0.001914  0.012400 -0.003564)
 47:   1170.18   0.002471   12.49  0.000659  ( 0.003587 -0.003929 -0.025112)
 48:   1170.77   0.001302    6.58  0.000347  (-0.005148 -0.004317 -0.017376)
 49:   1189.11   0.002247   11.36  0.000590  (-0.023184  0.007233 -0.000114)
 50:   1215.74   0.000287    1.45  0.000074  ( 0.007360 -0.004314  0.000929)
 51:   1252.69   0.007241   36.59  0.001804  ( 0.042139  0.005309  0.000079)
 52:   1331.23   0.007489   37.85  0.001756  (-0.039846 -0.012898  0.001205)
 53:   1346.79   0.000234    1.18  0.000054  (-0.006335  0.003420  0.001535)
 54:   1351.49   0.000270    1.36  0.000062  ( 0.005986  0.004559  0.002381)
 55:   1360.49   0.003777   19.09  0.000866  (-0.026929 -0.010789  0.004983)
 56:   1392.07   0.000539    2.72  0.000121  (-0.003757 -0.009637 -0.003716)
 57:   1394.36   0.001064    5.38  0.000238  (-0.009892  0.011598 -0.002391)
 58:   1396.56   0.005243   26.49  0.001171  (-0.014854  0.004969  0.030433)
 59:   1398.63   0.003333   16.84  0.000744  ( 0.009007  0.000401 -0.025735)
 60:   1399.78   0.004142   20.93  0.000923  ( 0.015728  0.017060  0.019622)
 61:   1407.08   0.003766   19.03  0.000835  ( 0.027931 -0.004909  0.005565)
 62:   1429.74   0.025765  130.20  0.005624  (-0.070251 -0.026234  0.000378)
 63:   1434.40   0.022219  112.28  0.004834  (-0.054759  0.042736  0.002980)
 64:   1443.01   0.002300   11.62  0.000497  ( 0.004518 -0.004599  0.021350)
 65:   1443.53   0.000384    1.94  0.000083  (-0.005248  0.005652 -0.004858)
 66:   1444.13   0.002505   12.66  0.000541  ( 0.005999 -0.018399  0.012919)
 67:   1447.27   0.000602    3.04  0.000130  ( 0.000042  0.010480 -0.004468)
 68:   1448.17   0.001521    7.69  0.000328  ( 0.013166 -0.000077  0.012429)
 69:   1449.20   0.001718    8.68  0.000370  (-0.001023 -0.010989 -0.015754)
 70:   1450.60   0.002599   13.13  0.000559  ( 0.016468  0.015064 -0.007808)
 71:   1457.00   0.001247    6.30  0.000267  (-0.011486  0.008318 -0.008116)
 72:   1463.22   0.001077    5.44  0.000230  ( 0.000901 -0.010975  0.010412)
 73:   1465.78   0.002008   10.15  0.000428  ( 0.011478  0.013962 -0.010043)
 74:   1466.25   0.002601   13.14  0.000554  ( 0.008718 -0.021482  0.004010)
 75:   1476.33   0.005309   26.83  0.001122  ( 0.033386  0.000065  0.002741)
 76:   1482.29   0.002801   14.16  0.000590  (-0.021217 -0.011810 -0.000243)
 77:   1488.53   0.002761   13.95  0.000579  (-0.020641  0.012342  0.000684)
 78:   1746.18   0.000688    3.47  0.000123  ( 0.000146  0.010593 -0.003264)
 79:   3060.31   0.004708   23.79  0.000480  ( 0.007889 -0.004785 -0.019875)
 80:   3064.20   0.006330   31.99  0.000645  (-0.021179 -0.013868  0.001936)
 81:   3067.54   0.004753   24.02  0.000484  ( 0.003940  0.007022  0.020462)
 82:   3071.48   0.004007   20.25  0.000407  ( 0.009546 -0.010278  0.014505)
 83:   3073.13   0.001745    8.82  0.000177  ( 0.005965  0.000661 -0.011881)
 84:   3077.21   0.008978   45.37  0.000910  ( 0.025787 -0.015632 -0.001046)
 85:   3124.44   0.003072   15.53  0.000307  ( 0.011752  0.012304  0.004166)
 86:   3129.88   0.001652    8.35  0.000165  ( 0.003937  0.010986 -0.005344)
 87:   3148.99   0.002428   12.27  0.000241  (-0.000689  0.002797  0.015241)
 88:   3163.48   0.005454   27.56  0.000538  (-0.002283 -0.020977  0.009631)
 89:   3164.81   0.002629   13.28  0.000259  (-0.000567  0.005922  0.014960)
 90:   3169.59   0.003055   15.44  0.000301  ( 0.014343  0.002411  0.009450)
 91:   3171.31   0.002796   14.13  0.000275  ( 0.006937 -0.001545 -0.014989)
 92:   3172.06   0.008488   42.89  0.000835  (-0.025623  0.008866  0.009993)
 93:   3172.27   0.004830   24.41  0.000475  ( 0.021277 -0.000416  0.004718)
 94:   3173.64   0.007678   38.80  0.000755  ( 0.009217  0.025652 -0.003464)
 95:   3183.34   0.004109   20.76  0.000403  ( 0.000326 -0.017384  0.010024)
 96:   3183.61   0.006284   31.76  0.000616  (-0.015890 -0.018205 -0.005666)
 97:   3186.23   0.004616   23.33  0.000452  (-0.017539  0.010350 -0.006115)
 98:   3190.71   0.001021    5.16  0.000100  (-0.007328 -0.006674 -0.001259)

--------------------------
THERMOCHEMISTRY AT 298.15K
--------------------------

Temperature         ... 298.15 K
Pressure            ... 1.00 atm
Total Mass          ... 180.29 AMU

Throughout the following assumptions are being made:
  (1) The electronic state is orbitally nondegenerate
  (2) There are no thermally accessible electronically excited states
  (3) Hindered rotations indicated by low frequency modes are not
      treated as such but are treated as vibrations and this may
      cause some error
  (4) All equations used are the standard statistical mechanics
      equations for an ideal gas
  (5) All vibrations are strictly harmonic

freq.      53.51  E(vib)   ...       0.52
freq.      99.30  E(vib)   ...       0.46
freq.     104.27  E(vib)   ...       0.46
freq.     152.75  E(vib)   ...       0.40
freq.     167.50  E(vib)   ...       0.38
freq.     205.77  E(vib)   ...       0.35
freq.     217.96  E(vib)   ...       0.33
freq.     225.32  E(vib)   ...       0.33
freq.     228.91  E(vib)   ...       0.32
freq.     239.08  E(vib)   ...       0.32
freq.     249.51  E(vib)   ...       0.31
freq.     264.11  E(vib)   ...       0.29
freq.     283.71  E(vib)   ...       0.28
freq.     284.40  E(vib)   ...       0.28
freq.     319.24  E(vib)   ...       0.25
freq.     338.95  E(vib)   ...       0.23
freq.     393.35  E(vib)   ...       0.20
freq.     417.03  E(vib)   ...       0.18
freq.     474.23  E(vib)   ...       0.15
freq.     493.79  E(vib)   ...       0.14
freq.     552.26  E(vib)   ...       0.12
freq.     585.77  E(vib)   ...       0.11
freq.     662.58  E(vib)   ...       0.08
freq.     681.92  E(vib)   ...       0.08
freq.     701.98  E(vib)   ...       0.07
freq.     746.17  E(vib)   ...       0.06
freq.     795.96  E(vib)   ...       0.05
freq.     912.93  E(vib)   ...       0.03
freq.     927.22  E(vib)   ...       0.03
freq.     930.16  E(vib)   ...       0.03
freq.     933.85  E(vib)   ...       0.03
freq.     954.94  E(vib)   ...       0.03
freq.     961.89  E(vib)   ...       0.03
freq.     972.13  E(vib)   ...       0.03
freq.    1037.09  E(vib)   ...       0.02
freq.    1048.31  E(vib)   ...       0.02
freq.    1061.51  E(vib)   ...       0.02
freq.    1095.46  E(vib)   ...       0.02
freq.    1125.43  E(vib)   ...       0.01
freq.    1161.01  E(vib)   ...       0.01
freq.    1170.18  E(vib)   ...       0.01
freq.    1170.77  E(vib)   ...       0.01
freq.    1189.11  E(vib)   ...       0.01
freq.    1215.74  E(vib)   ...       0.01
freq.    1252.69  E(vib)   ...       0.01
freq.    1331.23  E(vib)   ...       0.01
freq.    1346.79  E(vib)   ...       0.01
freq.    1351.49  E(vib)   ...       0.01
freq.    1360.49  E(vib)   ...       0.01
freq.    1392.07  E(vib)   ...       0.00
freq.    1394.36  E(vib)   ...       0.00
freq.    1396.56  E(vib)   ...       0.00
freq.    1398.63  E(vib)   ...       0.00
freq.    1399.78  E(vib)   ...       0.00
freq.    1407.08  E(vib)   ...       0.00
freq.    1429.74  E(vib)   ...       0.00
freq.    1434.40  E(vib)   ...       0.00
freq.    1443.01  E(vib)   ...       0.00
freq.    1443.53  E(vib)   ...       0.00
freq.    1444.13  E(vib)   ...       0.00
freq.    1447.27  E(vib)   ...       0.00
freq.    1448.17  E(vib)   ...       0.00
freq.    1449.20  E(vib)   ...       0.00
freq.    1450.60  E(vib)   ...       0.00
freq.    1457.00  E(vib)   ...       0.00
freq.    1463.22  E(vib)   ...       0.00
freq.    1465.78  E(vib)   ...       0.00
freq.    1466.25  E(vib)   ...       0.00
freq.    1476.33  E(vib)   ...       0.00
freq.    1482.29  E(vib)   ...       0.00
freq.    1488.53  E(vib)   ...       0.00
freq.    1746.18  E(vib)   ...       0.00
freq.    3060.31  E(vib)   ...       0.00
freq.    3064.20  E(vib)   ...       0.00
freq.    3067.54  E(vib)   ...       0.00
freq.    3071.48  E(vib)   ...       0.00
freq.    3073.13  E(vib)   ...       0.00
freq.    3077.21  E(vib)   ...       0.00
freq.    3124.44  E(vib)   ...       0.00
freq.    3129.88  E(vib)   ...       0.00
freq.    3148.99  E(vib)   ...       0.00
freq.    3163.48  E(vib)   ...       0.00
freq.    3164.81  E(vib)   ...       0.00
freq.    3169.59  E(vib)   ...       0.00
freq.    3171.31  E(vib)   ...       0.00
freq.    3172.06  E(vib)   ...       0.00
freq.    3172.27  E(vib)   ...       0.00
freq.    3173.64  E(vib)   ...       0.00
freq.    3183.34  E(vib)   ...       0.00
freq.    3183.61  E(vib)   ...       0.00
freq.    3186.23  E(vib)   ...       0.00
freq.    3190.71  E(vib)   ...       0.00

------------
INNER ENERGY
------------

The inner energy is: U= E(el) + E(ZPE) + E(vib) + E(rot) + E(trans)
    E(el)   - is the total energy from the electronic structure calculation
              = E(kin-el) + E(nuc-el) + E(el-el) + E(nuc-nuc)
    E(ZPE)  - the the zero temperature vibrational energy from the frequency calculation
    E(vib)  - the the finite temperature correction to E(ZPE) due to population
              of excited vibrational states
    E(rot)  - is the rotational thermal energy
    E(trans)- is the translational thermal energy

Summary of contributions to the inner energy U:
Electronic energy                ...   -540.19554227 Eh
Zero point energy                ...      0.29757897 Eh     186.73 kcal/mol
Thermal vibrational correction   ...      0.01149242 Eh       7.21 kcal/mol
Thermal rotational correction    ...      0.00141627 Eh       0.89 kcal/mol
Thermal translational correction ...      0.00141627 Eh       0.89 kcal/mol
-----------------------------------------------------------------------
Total thermal energy                   -539.88363833 Eh

Summary of corrections to the electronic energy:
(perhaps to be used in another calculation)
Total thermal correction                  0.01432496 Eh       8.99 kcal/mol
Non-thermal (ZPE) correction              0.29757897 Eh     186.73 kcal/mol
-----------------------------------------------------------------------
Total correction                          0.31190393 Eh     195.72 kcal/mol

--------
ENTHALPY
--------

The enthalpy is H = U + kB*T
                kB is Boltzmann's constant
Total free energy                 ...   -539.88363833 Eh
Thermal Enthalpy correction       ...      0.00094421 Eh       0.59 kcal/mol
-----------------------------------------------------------------------
Total Enthalpy                    ...   -539.88269413 Eh

Note: Only C1 symmetry has been detected, increase convergence thresholds
      if your molecule has a higher symmetry. Symmetry factor of 1.0 is
      used for the rotational entropy correction.

Note: Rotational entropy computed according to Herzberg
Infrared and Raman Spectra, Chapter V,1, Van Nostrand Reinhold, 1945
Point Group:  C1, Symmetry Number:   1
Rotational constants in cm-1:     0.041560     0.017524     0.014666

                             ****ORCA TERMINATED NORMALLY****
TOTAL RUN TIME: 0 days 1 hours 57 minutes 17 seconds 916 msec
