                         Program Version 5.0.4 -  RELEASE  -
|  1> # ORCA 5.0.4 - /users/bwb16179/postgrad/2024_03/DFT_Crest_Conformers/Opt/deprot/6_deprot_aq_7.inp # write input file
|  2> # Basic Mode
|  3> #
|  4> ! Opt Freq wB97X Def2-SVP D4 SlowConv TightSCF Defgrid2 Def2/J RIJCOSX CPCM(Water)
|  5>
|  6>
|  7>
|  8> %maxcore 4500
|  9>
| 10> %geom
| 11> Maxiter 150
| 12> END
| 13>
| 14> * xyzfile 0 1 6_deprot_aq_7.xyz
| 15>
| 16>                          ****END OF INPUT****
 Total Charge           Charge          ....    0
 Multiplicity           Mult            ....    1
 Number of Electrons    NEL             ....  100
Dispersion correction           -0.005801956
FINAL SINGLE POINT ENERGY      -540.189255476733
Dispersion correction            ... Starting D4
Dispersion correction           -0.005780700
FINAL SINGLE POINT ENERGY      -540.192710596700
Dispersion correction            ... Starting D4
Dispersion correction           -0.005774942
FINAL SINGLE POINT ENERGY      -540.193036463337
Dispersion correction            ... Starting D4
FINAL SINGLE POINT ENERGY      -540.193176406845
FINAL SINGLE POINT ENERGY      -540.193212348082
Dispersion correction           -0.005775504
FINAL SINGLE POINT ENERGY      -540.193230088676
Dispersion correction            ... Starting D4
Dispersion correction           -0.005774919
FINAL SINGLE POINT ENERGY      -540.193233590541
Dispersion correction            ... Starting D4
                    ***********************HURRAY********************

CARTESIAN COORDINATES (ANGSTROEM)
---------------------------------
  N     -1.067414   -0.408946   -0.033232
  C      0.000050   -1.247360   -0.000028
  N      1.067443   -0.408858    0.033229
  C      0.682236    0.933507    0.019362
  C     -0.682311    0.933452   -0.019579
  C     -2.433787   -0.948072   -0.017740
  C      2.433859   -0.947874    0.017863
  C     -3.123875   -0.719849    1.324408
  H     -2.268907   -2.030027   -0.127797
  C     -3.273415   -0.485377   -1.204493
  H      2.269059   -2.029837    0.127954
  C      3.273386   -0.485061    1.204645
  C      3.124006   -0.719635   -1.324248
  C      1.610749    2.105659    0.067640
  C     -1.610910    2.105530   -0.068024
  H     -4.195803   -1.083902   -1.251362
  H     -2.727000   -0.624647   -2.149821
  H     -3.568998    0.570935   -1.123790
  H     -2.494477   -1.088225    2.148823
  H     -4.079188   -1.265998    1.349306
  H     -3.343556    0.343745    1.503892
  H      3.343589    0.343977   -1.503755
  H      2.494697   -1.088106   -2.148689
  H      4.079376   -1.265688   -1.349063
  H      2.726913   -0.624283    2.149947
  H      3.568936    0.571256    1.123886
  H      4.195793   -1.083548    1.251620
  H     -2.089096    2.213432   -1.054127
  H     -1.052439    3.029629    0.132014
  H     -2.410516    2.034208    0.683635
  H      2.089004    2.213673    1.053696
  H      1.052195    3.029701   -0.132427
  H      2.410302    2.034337   -0.684080

 Multiplicity           Mult            ....    1
 Number of Electrons    NEL             ....  100
 Basis Dimension        Dim             ....  282

ORBITAL ENERGIES
----------------

  NO   OCC          E(Eh)            E(eV)
   0   2.0000     -14.439947      -392.9309
   1   2.0000     -14.439944      -392.9308
   2   2.0000     -10.306456      -280.4529
   3   2.0000     -10.306427      -280.4521
   4   2.0000     -10.293435      -280.0986
   5   2.0000     -10.292927      -280.0848
   6   2.0000     -10.272522      -279.5295
   7   2.0000     -10.272460      -279.5279
   8   2.0000     -10.270109      -279.4639
   9   2.0000     -10.261476      -279.2290
  10   2.0000     -10.261473      -279.2289
  11   2.0000     -10.261335      -279.2251
  12   2.0000     -10.261334      -279.2251
  13   2.0000      -1.139732       -31.0137
  14   2.0000      -1.035192       -28.1690
  15   2.0000      -0.934467       -25.4281
  16   2.0000      -0.903705       -24.5911
  17   2.0000      -0.884520       -24.0690
  18   2.0000      -0.843844       -22.9622
  19   2.0000      -0.807134       -21.9632
  20   2.0000      -0.806859       -21.9557
  21   2.0000      -0.789055       -21.4713
  22   2.0000      -0.748741       -20.3743
  23   2.0000      -0.715919       -19.4812
  24   2.0000      -0.677123       -18.4255
  25   2.0000      -0.646158       -17.5829
  26   2.0000      -0.593682       -16.1549
  27   2.0000      -0.588751       -16.0207
  28   2.0000      -0.579205       -15.7610
  29   2.0000      -0.552288       -15.0285
  30   2.0000      -0.547303       -14.8929
  31   2.0000      -0.534617       -14.5477
  32   2.0000      -0.532346       -14.4859
  33   2.0000      -0.530683       -14.4406
  34   2.0000      -0.521375       -14.1873
  35   2.0000      -0.508761       -13.8441
  36   2.0000      -0.505487       -13.7550
  37   2.0000      -0.491465       -13.3734
  38   2.0000      -0.483780       -13.1643
  39   2.0000      -0.481247       -13.0954
  40   2.0000      -0.475694       -12.9443
  41   2.0000      -0.471847       -12.8396
  42   2.0000      -0.462038       -12.5727
  43   2.0000      -0.454069       -12.3558
  44   2.0000      -0.442665       -12.0455
  45   2.0000      -0.427469       -11.6320
  46   2.0000      -0.427112       -11.6223
  47   2.0000      -0.362901        -9.8750
  48   2.0000      -0.318718        -8.6728
  49   2.0000      -0.303828        -8.2676
  50   0.0000       0.128184         3.4881
  51   0.0000       0.131626         3.5817
  52   0.0000       0.140418         3.8210
  53   0.0000       0.153056         4.1649
  54   0.0000       0.172702         4.6995

MULLIKEN ATOMIC CHARGES
-----------------------
   0 N :   -0.217739
   1 C :   -0.224362
   2 N :   -0.217737
   3 C :   -0.113723
   4 C :   -0.113721
   5 C :    0.006905
   6 C :    0.006905
   7 C :   -0.006132
   8 H :    0.021916
   9 C :   -0.015153
  10 H :    0.021917
  11 C :   -0.015148
  12 C :   -0.006137
  13 C :    0.072960
  14 C :    0.072963
  15 H :    0.044150
  16 H :    0.039045
  17 H :    0.029173
  18 H :    0.034917
  19 H :    0.042823
  20 H :    0.030308
  21 H :    0.030305
  22 H :    0.034917
  23 H :    0.042820
  24 H :    0.039045
  25 H :    0.029174
  26 H :    0.044152
  27 H :    0.060965
  28 H :    0.037094
  29 H :    0.044669
  30 H :    0.060964
  31 H :    0.037092
  32 H :    0.044672
Sum of atomic charges:   -0.0000000

LOEWDIN ATOMIC CHARGES
----------------------
   0 N :    0.026320
   1 C :   -0.321720
   2 N :    0.026320
   3 C :   -0.043683
   4 C :   -0.043683
   5 C :    0.027487
   6 C :    0.027486
   7 C :   -0.061853
   8 H :    0.027401
   9 C :   -0.062736
  10 H :    0.027401
  11 C :   -0.062735
  12 C :   -0.061853
  13 C :   -0.059364
  14 C :   -0.059364
  15 H :    0.036991
  16 H :    0.030826
  17 H :    0.026714
  18 H :    0.029243
  19 H :    0.035850
  20 H :    0.026115
  21 H :    0.026114
  22 H :    0.029243
  23 H :    0.035849
  24 H :    0.030826
  25 H :    0.026713
  26 H :    0.036992
  27 H :    0.040899
  28 H :    0.042884
  29 H :    0.037767
  30 H :    0.040899
  31 H :    0.042884
  32 H :    0.037767

  Mayer bond orders larger than 0.100000
B(  0-N ,  1-C ) :   1.2442 B(  0-N ,  4-C ) :   1.1196 B(  0-N ,  5-C ) :   0.9167
B(  1-C ,  2-N ) :   1.2442 B(  2-N ,  3-C ) :   1.1196 B(  2-N ,  6-C ) :   0.9167
B(  3-C ,  4-C ) :   1.6574 B(  3-C , 13-C ) :   1.0901 B(  4-C , 14-C ) :   1.0901
B(  5-C ,  7-C ) :   1.0727 B(  5-C ,  8-H ) :   0.9268 B(  5-C ,  9-C ) :   1.0691
B(  6-C , 10-H ) :   0.9268 B(  6-C , 11-C ) :   1.0691 B(  6-C , 12-C ) :   1.0727
B(  7-C , 18-H ) :   0.9661 B(  7-C , 19-H ) :   0.9695 B(  7-C , 20-H ) :   0.9628
B(  9-C , 15-H ) :   0.9683 B(  9-C , 16-H ) :   0.9676 B(  9-C , 17-H ) :   0.9644
B( 11-C , 24-H ) :   0.9676 B( 11-C , 25-H ) :   0.9644 B( 11-C , 26-H ) :   0.9683
B( 12-C , 21-H ) :   0.9628 B( 12-C , 22-H ) :   0.9661 B( 12-C , 23-H ) :   0.9695
B( 13-C , 30-H ) :   0.9489 B( 13-C , 31-H ) :   0.9414 B( 13-C , 32-H ) :   0.9485
B( 14-C , 27-H ) :   0.9489 B( 14-C , 28-H ) :   0.9414 B( 14-C , 29-H ) :   0.9485

Dispersion correction           -0.005774645
FINAL SINGLE POINT ENERGY      -540.193233776469

DIPOLE MOMENT
-------------
                                X             Y             Z
Electronic contribution:      0.00005      -2.40565      -0.00014
Nuclear contribution   :     -0.00012       4.03181       0.00013
                        -----------------------------------------
Total Dipole Moment    :     -0.00007       1.62616      -0.00001
                        -----------------------------------------
Magnitude (a.u.)       :      1.62616
Magnitude (Debye)      :      4.13336

Dispersion correction in the Hessian             ... Starting D4

VIBRATIONAL FREQUENCIES
-----------------------

Scaling factor for frequencies =  1.000000000  (already applied!)

   0:         0.00 cm**-1
   1:         0.00 cm**-1
   2:         0.00 cm**-1
   3:         0.00 cm**-1
   4:         0.00 cm**-1
   5:         0.00 cm**-1
   6:        37.75 cm**-1
   7:        48.43 cm**-1
   8:        97.97 cm**-1
   9:       116.68 cm**-1
  10:       174.97 cm**-1
  11:       174.98 cm**-1
  12:       192.25 cm**-1
  13:       215.90 cm**-1
  14:       230.69 cm**-1
  15:       233.74 cm**-1
  16:       239.09 cm**-1
  17:       270.89 cm**-1
  18:       273.26 cm**-1
  19:       283.60 cm**-1
  20:       294.59 cm**-1
  21:       333.78 cm**-1
  22:       343.05 cm**-1
  23:       392.75 cm**-1
  24:       408.32 cm**-1
  25:       461.99 cm**-1
  26:       491.03 cm**-1
  27:       554.15 cm**-1
  28:       606.01 cm**-1
  29:       652.51 cm**-1
  30:       680.19 cm**-1
  31:       706.09 cm**-1
  32:       750.58 cm**-1
  33:       776.99 cm**-1
  34:       913.07 cm**-1
  35:       927.25 cm**-1
  36:       927.41 cm**-1
  37:       934.44 cm**-1
  38:       957.58 cm**-1
  39:       957.65 cm**-1
  40:       974.15 cm**-1
  41:      1037.47 cm**-1
  42:      1040.58 cm**-1
  43:      1064.00 cm**-1
  44:      1081.05 cm**-1
  45:      1129.33 cm**-1
  46:      1170.97 cm**-1
  47:      1171.14 cm**-1
  48:      1173.91 cm**-1
  49:      1191.07 cm**-1
  50:      1210.57 cm**-1
  51:      1274.59 cm**-1
  52:      1329.31 cm**-1
  53:      1343.06 cm**-1
  54:      1352.30 cm**-1
  55:      1352.32 cm**-1
  56:      1392.92 cm**-1
  57:      1398.50 cm**-1
  58:      1398.82 cm**-1
  59:      1400.04 cm**-1
  60:      1402.35 cm**-1
  61:      1404.07 cm**-1
  62:      1432.58 cm**-1
  63:      1433.25 cm**-1
  64:      1438.58 cm**-1
  65:      1443.51 cm**-1
  66:      1446.47 cm**-1
  67:      1447.00 cm**-1
  68:      1452.12 cm**-1
  69:      1453.06 cm**-1
  70:      1456.69 cm**-1
  71:      1462.29 cm**-1
  72:      1465.94 cm**-1
  73:      1466.97 cm**-1
  74:      1473.44 cm**-1
  75:      1474.43 cm**-1
  76:      1480.79 cm**-1
  77:      1492.08 cm**-1
  78:      1736.09 cm**-1
  79:      3069.22 cm**-1
  80:      3069.26 cm**-1
  81:      3073.48 cm**-1
  82:      3073.59 cm**-1
  83:      3078.87 cm**-1
  84:      3081.32 cm**-1
  85:      3127.43 cm**-1
  86:      3127.60 cm**-1
  87:      3166.23 cm**-1
  88:      3167.01 cm**-1
  89:      3171.71 cm**-1
  90:      3171.73 cm**-1
  91:      3172.90 cm**-1
  92:      3172.93 cm**-1
  93:      3175.92 cm**-1
  94:      3176.52 cm**-1
  95:      3183.04 cm**-1
  96:      3183.09 cm**-1
  97:      3191.37 cm**-1
  98:      3195.76 cm**-1

IR SPECTRUM
-----------

 Mode   freq       eps      Int      T**2         TX        TY        TZ
       cm**-1   L/(mol*cm) km/mol    a.u.
----------------------------------------------------------------------------
  6:     37.75   0.000049    0.25  0.000406  ( 0.004462 -0.000002 -0.019657)
  7:     48.43   0.000001    0.00  0.000004  (-0.000005 -0.002107 -0.000021)
  8:     97.97   0.000002    0.01  0.000005  ( 0.000007 -0.002321  0.000028)
  9:    116.68   0.001973    9.97  0.005278  ( 0.008786  0.000007  0.072116)
 10:    174.97   0.000113    0.57  0.000202  (-0.000195  0.012211  0.007238)
 11:    174.98   0.000341    1.72  0.000608  (-0.000094 -0.024394  0.003631)
 12:    192.25   0.000020    0.10  0.000033  (-0.000000  0.005729 -0.000011)
 13:    215.90   0.000095    0.48  0.000137  ( 0.000007 -0.011718 -0.000018)
 14:    230.69   0.000051    0.26  0.000069  ( 0.006088  0.000003 -0.005674)
 15:    233.74   0.000007    0.04  0.000009  ( 0.000020 -0.003067  0.000004)
 16:    239.09   0.000331    1.67  0.000432  ( 0.019477  0.000010 -0.007263)
 17:    270.89   0.000159    0.81  0.000184  (-0.013027  0.000000  0.003734)
 18:    273.26   0.000000    0.00  0.000000  (-0.000019  0.000271  0.000013)
 19:    283.60   0.000026    0.13  0.000029  (-0.000011  0.005383  0.000015)
 20:    294.59   0.000242    1.22  0.000256  (-0.000356  0.000006 -0.015996)
 21:    333.78   0.000035    0.18  0.000033  (-0.000005  0.005747  0.000005)
 22:    343.05   0.000686    3.47  0.000624  (-0.024401 -0.000000  0.005337)
 23:    392.75   0.001933    9.77  0.001536  (-0.007080 -0.000001 -0.038546)
 24:    408.32   0.002598   13.13  0.001986  (-0.001811  0.000002  0.044524)
 25:    461.99   0.000284    1.43  0.000192  (-0.000004  0.013842 -0.000004)
 26:    491.03   0.000030    0.15  0.000019  (-0.000001 -0.004368 -0.000000)
 27:    554.15   0.002286   11.55  0.001287  ( 0.035876  0.000002  0.000270)
 28:    606.01   0.000004    0.02  0.000002  ( 0.000002 -0.001397 -0.000002)
 29:    652.51   0.000071    0.36  0.000034  (-0.004617 -0.000002 -0.003524)
 30:    680.19   0.000305    1.54  0.000140  ( 0.010051  0.000004 -0.006252)
 31:    706.09   0.000000    0.00  0.000000  (-0.000001  0.000189 -0.000000)
 32:    750.58   0.001211    6.12  0.000503  ( 0.000001 -0.022434  0.000005)
 33:    776.99   0.001599    8.08  0.000642  ( 0.025287  0.000001 -0.001617)
 34:    913.07   0.001003    5.07  0.000343  ( 0.000001  0.018513 -0.000004)
 35:    927.25   0.000762    3.85  0.000256  (-0.005303 -0.000008 -0.015109)
 36:    927.41   0.000011    0.06  0.000004  ( 0.000005 -0.001950  0.000033)
 37:    934.44   0.002357   11.91  0.000787  (-0.028018  0.000001  0.001482)
 38:    957.58   0.000014    0.07  0.000004  (-0.000094  0.002048  0.000449)
 39:    957.65   0.000134    0.68  0.000044  (-0.001322 -0.000141  0.006479)
 40:    974.15   0.000001    0.00  0.000000  ( 0.000002 -0.000463 -0.000002)
 41:   1037.47   0.001182    5.98  0.000356  ( 0.011568 -0.000000 -0.014895)
 42:   1040.58   0.004817   24.34  0.001445  (-0.036699  0.000001 -0.009894)
 43:   1064.00   0.000240    1.21  0.000070  (-0.000001  0.008383  0.000002)
 44:   1081.05   0.005270   26.63  0.001521  (-0.000002  0.039003 -0.000003)
 45:   1129.33   0.002872   14.51  0.000793  ( 0.028127  0.000004  0.001531)
 46:   1170.97   0.004105   20.75  0.001094  (-0.003674  0.000003 -0.032873)
 47:   1171.14   0.000002    0.01  0.000000  (-0.000040 -0.000559 -0.000387)
 48:   1173.91   0.000320    1.61  0.000085  ( 0.000003 -0.009216  0.000013)
 49:   1191.07   0.001187    6.00  0.000311  ( 0.017637 -0.000000 -0.000239)
 50:   1210.57   0.000010    0.05  0.000003  ( 0.000003 -0.001606  0.000000)
 51:   1274.59   0.019245   97.26  0.004712  ( 0.068635  0.000002  0.001064)
 52:   1329.31   0.000620    3.13  0.000145  (-0.000002 -0.012059  0.000000)
 53:   1343.06   0.004317   21.82  0.001003  (-0.031628 -0.000001  0.001664)
 54:   1352.30   0.000052    0.27  0.000012  (-0.000373  0.003447  0.000288)
 55:   1352.32   0.000189    0.95  0.000044  (-0.005233 -0.000250  0.004019)
 56:   1392.92   0.000037    0.19  0.000008  ( 0.000009  0.002885  0.000011)
 57:   1398.50   0.000001    0.01  0.000000  ( 0.000100  0.000308  0.000370)
 58:   1398.82   0.010132   51.20  0.002260  ( 0.008408 -0.000006  0.046793)
 59:   1400.04   0.004301   21.74  0.000959  ( 0.028248  0.000003 -0.012682)
 60:   1402.35   0.001052    5.32  0.000234  ( 0.000017 -0.015299 -0.000000)
 61:   1404.07   0.000443    2.24  0.000099  ( 0.005968  0.000020  0.007933)
 62:   1432.58   0.006705   33.88  0.001460  ( 0.000149  0.038216 -0.000006)
 63:   1433.25   0.046298  233.97  0.010080  (-0.100396  0.000047  0.001038)
 64:   1438.58   0.006138   31.02  0.001332  ( 0.000018 -0.036491 -0.000001)
 65:   1443.51   0.004242   21.44  0.000917  (-0.001563  0.000003  0.030243)
 66:   1446.47   0.000372    1.88  0.000080  (-0.008261 -0.000019  0.003460)
 67:   1447.00   0.000007    0.04  0.000001  (-0.000057  0.001221  0.000036)
 68:   1452.12   0.000907    4.58  0.000195  ( 0.000016 -0.013957 -0.000007)
 69:   1453.06   0.003246   16.40  0.000697  (-0.026184 -0.000007  0.003384)
 70:   1456.69   0.003612   18.25  0.000774  ( 0.000002 -0.027816  0.000008)
 71:   1462.29   0.001029    5.20  0.000220  ( 0.005968 -0.000009 -0.013567)
 72:   1465.94   0.000643    3.25  0.000137  ( 0.009711  0.000005  0.006517)
 73:   1466.97   0.001112    5.62  0.000237  (-0.000017 -0.015379  0.000007)
 74:   1473.44   0.002917   14.74  0.000618  ( 0.000034 -0.024856 -0.000003)
 75:   1474.43   0.005914   29.89  0.001252  (-0.035140 -0.000019  0.004114)
 76:   1480.79   0.000013    0.07  0.000003  ( 0.000004 -0.001676 -0.000002)
 77:   1492.08   0.005375   27.17  0.001124  (-0.033428 -0.000002 -0.002616)
 78:   1736.09   0.000820    4.14  0.000147  (-0.000001  0.012137 -0.000000)
 79:   3069.22   0.009797   49.51  0.000996  (-0.004996  0.000133  0.031163)
 80:   3069.26   0.000085    0.43  0.000009  (-0.000357 -0.001841  0.002259)
 81:   3073.48   0.003647   18.43  0.000370  (-0.011628 -0.000001 -0.015331)
 82:   3073.59   0.000001    0.00  0.000000  ( 0.000002 -0.000304  0.000018)
 83:   3078.87   0.012712   64.24  0.001288  ( 0.035674  0.000007  0.003977)
 84:   3081.32   0.004926   24.89  0.000499  ( 0.000004 -0.022335  0.000005)
 85:   3127.43   0.002722   13.76  0.000272  (-0.000023 -0.016482 -0.000011)
 86:   3127.60   0.000651    3.29  0.000065  (-0.007252  0.000053 -0.003519)
 87:   3166.23   0.005047   25.51  0.000497  ( 0.000447 -0.000046 -0.022299)
 88:   3167.01   0.000471    2.38  0.000046  (-0.000002  0.006810 -0.000117)
 89:   3171.71   0.005467   27.63  0.000538  ( 0.005021  0.000024 -0.022643)
 90:   3171.73   0.000101    0.51  0.000010  ( 0.000051 -0.003143 -0.000174)
 91:   3172.90   0.013274   67.08  0.001306  (-0.035985 -0.000074 -0.003257)
 92:   3172.93   0.000314    1.59  0.000031  (-0.000438  0.005540 -0.000047)
 93:   3175.92   0.000290    1.47  0.000029  (-0.005237  0.000225 -0.001018)
 94:   3176.52   0.011817   59.72  0.001161  (-0.000031 -0.034072 -0.000003)
 95:   3183.04   0.000468    2.37  0.000046  (-0.001192  0.000921  0.006604)
 96:   3183.09   0.010247   51.78  0.001005  ( 0.000033  0.031695 -0.000192)
 97:   3191.37   0.003643   18.41  0.000356  ( 0.018579 -0.000005 -0.003331)
 98:   3195.76   0.000386    1.95  0.000038  ( 0.000013  0.006142 -0.000006)

--------------------------
THERMOCHEMISTRY AT 298.15K
--------------------------

Temperature         ... 298.15 K
Pressure            ... 1.00 atm
Total Mass          ... 180.29 AMU

Throughout the following assumptions are being made:
  (1) The electronic state is orbitally nondegenerate
  (2) There are no thermally accessible electronically excited states
  (3) Hindered rotations indicated by low frequency modes are not
      treated as such but are treated as vibrations and this may
      cause some error
  (4) All equations used are the standard statistical mechanics
      equations for an ideal gas
  (5) All vibrations are strictly harmonic

freq.      37.75  E(vib)   ...       0.54
freq.      48.43  E(vib)   ...       0.53
freq.      97.97  E(vib)   ...       0.46
freq.     116.68  E(vib)   ...       0.44
freq.     174.97  E(vib)   ...       0.38
freq.     174.98  E(vib)   ...       0.38
freq.     192.25  E(vib)   ...       0.36
freq.     215.90  E(vib)   ...       0.34
freq.     230.69  E(vib)   ...       0.32
freq.     233.74  E(vib)   ...       0.32
freq.     239.09  E(vib)   ...       0.32
freq.     270.89  E(vib)   ...       0.29
freq.     273.26  E(vib)   ...       0.29
freq.     283.60  E(vib)   ...       0.28
freq.     294.59  E(vib)   ...       0.27
freq.     333.78  E(vib)   ...       0.24
freq.     343.05  E(vib)   ...       0.23
freq.     392.75  E(vib)   ...       0.20
freq.     408.32  E(vib)   ...       0.19
freq.     461.99  E(vib)   ...       0.16
freq.     491.03  E(vib)   ...       0.14
freq.     554.15  E(vib)   ...       0.12
freq.     606.01  E(vib)   ...       0.10
freq.     652.51  E(vib)   ...       0.08
freq.     680.19  E(vib)   ...       0.08
freq.     706.09  E(vib)   ...       0.07
freq.     750.58  E(vib)   ...       0.06
freq.     776.99  E(vib)   ...       0.05
freq.     913.07  E(vib)   ...       0.03
freq.     927.25  E(vib)   ...       0.03
freq.     927.41  E(vib)   ...       0.03
freq.     934.44  E(vib)   ...       0.03
freq.     957.58  E(vib)   ...       0.03
freq.     957.65  E(vib)   ...       0.03
freq.     974.15  E(vib)   ...       0.03
freq.    1037.47  E(vib)   ...       0.02
freq.    1040.58  E(vib)   ...       0.02
freq.    1064.00  E(vib)   ...       0.02
freq.    1081.05  E(vib)   ...       0.02
freq.    1129.33  E(vib)   ...       0.01
freq.    1170.97  E(vib)   ...       0.01
freq.    1171.14  E(vib)   ...       0.01
freq.    1173.91  E(vib)   ...       0.01
freq.    1191.07  E(vib)   ...       0.01
freq.    1210.57  E(vib)   ...       0.01
freq.    1274.59  E(vib)   ...       0.01
freq.    1329.31  E(vib)   ...       0.01
freq.    1343.06  E(vib)   ...       0.01
freq.    1352.30  E(vib)   ...       0.01
freq.    1352.32  E(vib)   ...       0.01
freq.    1392.92  E(vib)   ...       0.00
freq.    1398.50  E(vib)   ...       0.00
freq.    1398.82  E(vib)   ...       0.00
freq.    1400.04  E(vib)   ...       0.00
freq.    1402.35  E(vib)   ...       0.00
freq.    1404.07  E(vib)   ...       0.00
freq.    1432.58  E(vib)   ...       0.00
freq.    1433.25  E(vib)   ...       0.00
freq.    1438.58  E(vib)   ...       0.00
freq.    1443.51  E(vib)   ...       0.00
freq.    1446.47  E(vib)   ...       0.00
freq.    1447.00  E(vib)   ...       0.00
freq.    1452.12  E(vib)   ...       0.00
freq.    1453.06  E(vib)   ...       0.00
freq.    1456.69  E(vib)   ...       0.00
freq.    1462.29  E(vib)   ...       0.00
freq.    1465.94  E(vib)   ...       0.00
freq.    1466.97  E(vib)   ...       0.00
freq.    1473.44  E(vib)   ...       0.00
freq.    1474.43  E(vib)   ...       0.00
freq.    1480.79  E(vib)   ...       0.00
freq.    1492.08  E(vib)   ...       0.00
freq.    1736.09  E(vib)   ...       0.00
freq.    3069.22  E(vib)   ...       0.00
freq.    3069.26  E(vib)   ...       0.00
freq.    3073.48  E(vib)   ...       0.00
freq.    3073.59  E(vib)   ...       0.00
freq.    3078.87  E(vib)   ...       0.00
freq.    3081.32  E(vib)   ...       0.00
freq.    3127.43  E(vib)   ...       0.00
freq.    3127.60  E(vib)   ...       0.00
freq.    3166.23  E(vib)   ...       0.00
freq.    3167.01  E(vib)   ...       0.00
freq.    3171.71  E(vib)   ...       0.00
freq.    3171.73  E(vib)   ...       0.00
freq.    3172.90  E(vib)   ...       0.00
freq.    3172.93  E(vib)   ...       0.00
freq.    3175.92  E(vib)   ...       0.00
freq.    3176.52  E(vib)   ...       0.00
freq.    3183.04  E(vib)   ...       0.00
freq.    3183.09  E(vib)   ...       0.00
freq.    3191.37  E(vib)   ...       0.00
freq.    3195.76  E(vib)   ...       0.00

------------
INNER ENERGY
------------

The inner energy is: U= E(el) + E(ZPE) + E(vib) + E(rot) + E(trans)
    E(el)   - is the total energy from the electronic structure calculation
              = E(kin-el) + E(nuc-el) + E(el-el) + E(nuc-nuc)
    E(ZPE)  - the the zero temperature vibrational energy from the frequency calculation
    E(vib)  - the the finite temperature correction to E(ZPE) due to population
              of excited vibrational states
    E(rot)  - is the rotational thermal energy
    E(trans)- is the translational thermal energy

Summary of contributions to the inner energy U:
Electronic energy                ...   -540.19323378 Eh
Zero point energy                ...      0.29806723 Eh     187.04 kcal/mol
Thermal vibrational correction   ...      0.01224207 Eh       7.68 kcal/mol
Thermal rotational correction    ...      0.00141627 Eh       0.89 kcal/mol
Thermal translational correction ...      0.00141627 Eh       0.89 kcal/mol
-----------------------------------------------------------------------
Total thermal energy                   -539.88009194 Eh

Summary of corrections to the electronic energy:
(perhaps to be used in another calculation)
Total thermal correction                  0.01507461 Eh       9.46 kcal/mol
Non-thermal (ZPE) correction              0.29806723 Eh     187.04 kcal/mol
-----------------------------------------------------------------------
Total correction                          0.31314184 Eh     196.50 kcal/mol

--------
ENTHALPY
--------

The enthalpy is H = U + kB*T
                kB is Boltzmann's constant
Total free energy                 ...   -539.88009194 Eh
Thermal Enthalpy correction       ...      0.00094421 Eh       0.59 kcal/mol
-----------------------------------------------------------------------
Total Enthalpy                    ...   -539.87914773 Eh

Note: Only C1 symmetry has been detected, increase convergence thresholds
      if your molecule has a higher symmetry. Symmetry factor of 1.0 is
      used for the rotational entropy correction.

Note: Rotational entropy computed according to Herzberg
Infrared and Raman Spectra, Chapter V,1, Van Nostrand Reinhold, 1945

Rotational constants in cm-1:     0.047070     0.016360     0.014499

                             ****ORCA TERMINATED NORMALLY****
TOTAL RUN TIME: 0 days 1 hours 52 minutes 7 seconds 497 msec
