                         Program Version 5.0.4 -  RELEASE  -
|  1> # ORCA 5.0.4 - /users/bwb16179/postgrad/2024_03/DFT_Crest_Conformers/Opt/deprot/6_deprot_aq_6.inp # write input file
|  2> # Basic Mode
|  3> #
|  4> ! Opt Freq wB97X Def2-SVP D4 SlowConv TightSCF Defgrid2 Def2/J RIJCOSX CPCM(Water)
|  5>
|  6>
|  7>
|  8> %maxcore 4500
|  9>
| 10> %geom
| 11> Maxiter 150
| 12> END
| 13>
| 14> * xyzfile 0 1 6_deprot_aq_6.xyz
| 15>
| 16>                          ****END OF INPUT****
 Total Charge           Charge          ....    0
 Multiplicity           Mult            ....    1
 Number of Electrons    NEL             ....  100
Dispersion correction           -0.005803370
FINAL SINGLE POINT ENERGY      -540.189389722303
Dispersion correction            ... Starting D4
Dispersion correction           -0.005782453
FINAL SINGLE POINT ENERGY      -540.192799628830
Dispersion correction            ... Starting D4
Dispersion correction           -0.005777575
FINAL SINGLE POINT ENERGY      -540.193095808846
Dispersion correction            ... Starting D4
FINAL SINGLE POINT ENERGY      -540.193199171772
FINAL SINGLE POINT ENERGY      -540.193212193810
Dispersion correction           -0.005778739
FINAL SINGLE POINT ENERGY      -540.193223618428
Dispersion correction            ... Starting D4
Dispersion correction           -0.005778960
FINAL SINGLE POINT ENERGY      -540.193226689957
Dispersion correction            ... Starting D4
                    ***********************HURRAY********************

CARTESIAN COORDINATES (ANGSTROEM)
---------------------------------
  N     -1.068177   -0.398259   -0.118978
  C     -0.001260   -1.229262   -0.238974
  N      1.067326   -0.400424   -0.118834
  C      0.683375    0.926864    0.084245
  C     -0.681578    0.928249    0.084148
  C     -2.435284   -0.934663   -0.149547
  C      2.433357   -0.939589   -0.149237
  C     -3.084052   -0.918387    1.231958
  H     -2.278285   -1.986309   -0.431229
  C     -3.305142   -0.290469   -1.225005
  H      2.274263   -1.990947   -0.430826
  C      3.082050   -0.924524    1.232323
  C      3.304649   -0.297232   -1.224637
  C      1.611668    2.091866    0.220278
  C     -1.607517    2.095153    0.219948
  H     -2.786387   -0.283857   -2.195826
  H     -3.588576    0.741912   -0.972843
  H     -4.233561   -0.870533   -1.337307
  H     -2.437186   -1.420949    1.967105
  H     -4.046548   -1.451391    1.198151
  H     -3.282447    0.104792    1.586285
  H      2.786170   -0.289915   -2.195600
  H      4.232053   -0.878991   -1.336551
  H      3.589849    0.734704   -0.972640
  H      4.043332   -1.459725    1.198707
  H      2.433974   -1.425431    1.967531
  H      3.282770    0.098274    1.586440
  H     -1.059033    2.960894    0.615710
  H     -2.440113    1.888721    0.907280
  H     -2.041110    2.393968   -0.747762
  H      2.444183    1.883388    0.907085
  H      1.065085    2.958438    0.616852
  H      2.045386    2.390414   -0.747463

 Multiplicity           Mult            ....    1
 Number of Electrons    NEL             ....  100
 Basis Dimension        Dim             ....  282

ORBITAL ENERGIES
----------------

  NO   OCC          E(Eh)            E(eV)
   0   2.0000     -14.440041      -392.9335
   1   2.0000     -14.440038      -392.9334
   2   2.0000     -10.306557      -280.4557
   3   2.0000     -10.306528      -280.4549
   4   2.0000     -10.293230      -280.0930
   5   2.0000     -10.292722      -280.0792
   6   2.0000     -10.272635      -279.5326
   7   2.0000     -10.272570      -279.5308
   8   2.0000     -10.270133      -279.4645
   9   2.0000     -10.261519      -279.2301
  10   2.0000     -10.261514      -279.2300
  11   2.0000     -10.261449      -279.2282
  12   2.0000     -10.261444      -279.2281
  13   2.0000      -1.139820       -31.0161
  14   2.0000      -1.035322       -28.1726
  15   2.0000      -0.934503       -25.4291
  16   2.0000      -0.903877       -24.5957
  17   2.0000      -0.884377       -24.0651
  18   2.0000      -0.843951       -22.9651
  19   2.0000      -0.807322       -21.9683
  20   2.0000      -0.806871       -21.9561
  21   2.0000      -0.788955       -21.4686
  22   2.0000      -0.748869       -20.3778
  23   2.0000      -0.715902       -19.4807
  24   2.0000      -0.677274       -18.4296
  25   2.0000      -0.646312       -17.5870
  26   2.0000      -0.593859       -16.1597
  27   2.0000      -0.586870       -15.9695
  28   2.0000      -0.582004       -15.8371
  29   2.0000      -0.550927       -14.9915
  30   2.0000      -0.548004       -14.9120
  31   2.0000      -0.534231       -14.5372
  32   2.0000      -0.532956       -14.5025
  33   2.0000      -0.530220       -14.4280
  34   2.0000      -0.520066       -14.1517
  35   2.0000      -0.508747       -13.8437
  36   2.0000      -0.505261       -13.7488
  37   2.0000      -0.492238       -13.3945
  38   2.0000      -0.484614       -13.1870
  39   2.0000      -0.481284       -13.0964
  40   2.0000      -0.477029       -12.9806
  41   2.0000      -0.471491       -12.8299
  42   2.0000      -0.462027       -12.5724
  43   2.0000      -0.454164       -12.3584
  44   2.0000      -0.442851       -12.0506
  45   2.0000      -0.427293       -11.6272
  46   2.0000      -0.426859       -11.6154
  47   2.0000      -0.362905        -9.8751
  48   2.0000      -0.318773        -8.6743
  49   2.0000      -0.303778        -8.2662
  50   0.0000       0.128878         3.5069
  51   0.0000       0.131229         3.5709
  52   0.0000       0.140440         3.8216
  53   0.0000       0.153184         4.1683
  54   0.0000       0.172304         4.6886

MULLIKEN ATOMIC CHARGES
-----------------------
   0 N :   -0.217520
   1 C :   -0.224457
   2 N :   -0.217511
   3 C :   -0.113858
   4 C :   -0.113865
   5 C :    0.004479
   6 C :    0.004487
   7 C :   -0.005495
   8 H :    0.022301
   9 C :   -0.014312
  10 H :    0.022300
  11 C :   -0.005523
  12 C :   -0.014292
  13 C :    0.075784
  14 C :    0.075837
  15 H :    0.039190
  16 H :    0.028486
  17 H :    0.044295
  18 H :    0.034858
  19 H :    0.042882
  20 H :    0.030909
  21 H :    0.039189
  22 H :    0.044293
  23 H :    0.028473
  24 H :    0.042890
  25 H :    0.034857
  26 H :    0.030919
  27 H :    0.036614
  28 H :    0.042550
  29 H :    0.061022
  30 H :    0.042528
  31 H :    0.036661
  32 H :    0.061032
Sum of atomic charges:   -0.0000000

LOEWDIN ATOMIC CHARGES
----------------------
   0 N :    0.026599
   1 C :   -0.322191
   2 N :    0.026598
   3 C :   -0.043747
   4 C :   -0.043750
   5 C :    0.027305
   6 C :    0.027308
   7 C :   -0.061833
   8 H :    0.027488
   9 C :   -0.062676
  10 H :    0.027488
  11 C :   -0.061835
  12 C :   -0.062675
  13 C :   -0.059219
  14 C :   -0.059215
  15 H :    0.030899
  16 H :    0.027091
  17 H :    0.036895
  18 H :    0.029224
  19 H :    0.035777
  20 H :    0.026303
  21 H :    0.030897
  22 H :    0.036896
  23 H :    0.027094
  24 H :    0.035779
  25 H :    0.029223
  26 H :    0.026302
  27 H :    0.042884
  28 H :    0.036786
  29 H :    0.041317
  30 H :    0.036784
  31 H :    0.042887
  32 H :    0.041319

  Mayer bond orders larger than 0.100000
B(  0-N ,  1-C ) :   1.2441 B(  0-N ,  4-C ) :   1.1201 B(  0-N ,  5-C ) :   0.9162
B(  1-C ,  2-N ) :   1.2441 B(  2-N ,  3-C ) :   1.1202 B(  2-N ,  6-C ) :   0.9162
B(  3-C ,  4-C ) :   1.6553 B(  3-C , 13-C ) :   1.0925 B(  4-C , 14-C ) :   1.0925
B(  5-C ,  7-C ) :   1.0725 B(  5-C ,  8-H ) :   0.9271 B(  5-C ,  9-C ) :   1.0685
B(  6-C , 10-H ) :   0.9271 B(  6-C , 11-C ) :   1.0725 B(  6-C , 12-C ) :   1.0685
B(  7-C , 18-H ) :   0.9657 B(  7-C , 19-H ) :   0.9697 B(  7-C , 20-H ) :   0.9627
B(  9-C , 15-H ) :   0.9677 B(  9-C , 16-H ) :   0.9645 B(  9-C , 17-H ) :   0.9684
B( 11-C , 24-H ) :   0.9696 B( 11-C , 25-H ) :   0.9657 B( 11-C , 26-H ) :   0.9627
B( 12-C , 21-H ) :   0.9677 B( 12-C , 22-H ) :   0.9684 B( 12-C , 23-H ) :   0.9645
B( 13-C , 30-H ) :   0.9478 B( 13-C , 31-H ) :   0.9415 B( 13-C , 32-H ) :   0.9479
B( 14-C , 27-H ) :   0.9415 B( 14-C , 28-H ) :   0.9478 B( 14-C , 29-H ) :   0.9479

Dispersion correction           -0.005778516
FINAL SINGLE POINT ENERGY      -540.193227291240

DIPOLE MOMENT
-------------
                                X             Y             Z
Electronic contribution:     -0.00244      -2.32549      -0.98172
Nuclear contribution   :      0.00408       3.93921       1.22439
                        -----------------------------------------
Total Dipole Moment    :      0.00165       1.61372       0.24268
                        -----------------------------------------
Magnitude (a.u.)       :      1.63187
Magnitude (Debye)      :      4.14788

Dispersion correction in the Hessian             ... Starting D4

VIBRATIONAL FREQUENCIES
-----------------------

Scaling factor for frequencies =  1.000000000  (already applied!)

   0:         0.00 cm**-1
   1:         0.00 cm**-1
   2:         0.00 cm**-1
   3:         0.00 cm**-1
   4:         0.00 cm**-1
   5:         0.00 cm**-1
   6:        43.03 cm**-1
   7:        55.46 cm**-1
   8:        83.52 cm**-1
   9:       105.38 cm**-1
  10:       109.99 cm**-1
  11:       114.03 cm**-1
  12:       182.45 cm**-1
  13:       190.57 cm**-1
  14:       217.22 cm**-1
  15:       220.66 cm**-1
  16:       245.10 cm**-1
  17:       245.63 cm**-1
  18:       267.63 cm**-1
  19:       273.22 cm**-1
  20:       282.30 cm**-1
  21:       325.89 cm**-1
  22:       336.83 cm**-1
  23:       398.14 cm**-1
  24:       400.05 cm**-1
  25:       461.88 cm**-1
  26:       490.61 cm**-1
  27:       553.71 cm**-1
  28:       605.13 cm**-1
  29:       652.36 cm**-1
  30:       680.42 cm**-1
  31:       706.61 cm**-1
  32:       750.97 cm**-1
  33:       776.65 cm**-1
  34:       912.11 cm**-1
  35:       927.18 cm**-1
  36:       929.04 cm**-1
  37:       935.05 cm**-1
  38:       954.75 cm**-1
  39:       954.84 cm**-1
  40:       971.76 cm**-1
  41:      1036.59 cm**-1
  42:      1038.57 cm**-1
  43:      1058.95 cm**-1
  44:      1079.48 cm**-1
  45:      1129.59 cm**-1
  46:      1170.10 cm**-1
  47:      1170.34 cm**-1
  48:      1174.27 cm**-1
  49:      1190.84 cm**-1
  50:      1209.28 cm**-1
  51:      1274.02 cm**-1
  52:      1327.84 cm**-1
  53:      1341.59 cm**-1
  54:      1352.77 cm**-1
  55:      1352.98 cm**-1
  56:      1392.79 cm**-1
  57:      1396.28 cm**-1
  58:      1396.68 cm**-1
  59:      1399.24 cm**-1
  60:      1402.11 cm**-1
  61:      1403.74 cm**-1
  62:      1429.60 cm**-1
  63:      1430.50 cm**-1
  64:      1437.04 cm**-1
  65:      1437.75 cm**-1
  66:      1442.93 cm**-1
  67:      1445.10 cm**-1
  68:      1446.05 cm**-1
  69:      1450.58 cm**-1
  70:      1456.69 cm**-1
  71:      1460.02 cm**-1
  72:      1461.84 cm**-1
  73:      1463.78 cm**-1
  74:      1471.71 cm**-1
  75:      1474.24 cm**-1
  76:      1480.29 cm**-1
  77:      1492.75 cm**-1
  78:      1736.09 cm**-1
  79:      3068.94 cm**-1
  80:      3069.03 cm**-1
  81:      3073.62 cm**-1
  82:      3073.78 cm**-1
  83:      3076.41 cm**-1
  84:      3078.58 cm**-1
  85:      3127.44 cm**-1
  86:      3127.63 cm**-1
  87:      3165.02 cm**-1
  88:      3165.27 cm**-1
  89:      3171.95 cm**-1
  90:      3171.97 cm**-1
  91:      3173.07 cm**-1
  92:      3173.09 cm**-1
  93:      3175.04 cm**-1
  94:      3175.49 cm**-1
  95:      3183.35 cm**-1
  96:      3183.47 cm**-1
  97:      3190.35 cm**-1
  98:      3193.23 cm**-1

IR SPECTRUM
-----------

 Mode   freq       eps      Int      T**2         TX        TY        TZ
       cm**-1   L/(mol*cm) km/mol    a.u.
----------------------------------------------------------------------------
  6:     43.03   0.000218    1.10  0.001585  (-0.000024 -0.006992  0.039189)
  7:     55.46   0.000013    0.07  0.000075  (-0.008674  0.000029 -0.000278)
  8:     83.52   0.000005    0.03  0.000020  (-0.004503 -0.000063 -0.000107)
  9:    105.38   0.000076    0.38  0.000224  (-0.000012 -0.010917  0.010262)
 10:    109.99   0.001510    7.63  0.004284  (-0.000040 -0.013819  0.063973)
 11:    114.03   0.000006    0.03  0.000018  ( 0.004191  0.000066  0.000142)
 12:    182.45   0.000629    3.18  0.001076  ( 0.000036 -0.024333 -0.022006)
 13:    190.57   0.000062    0.31  0.000101  ( 0.010039  0.000127  0.000037)
 14:    217.22   0.000032    0.16  0.000046  ( 0.000217 -0.005038  0.004587)
 15:    220.66   0.000095    0.48  0.000134  (-0.011597 -0.000060  0.000084)
 16:    245.10   0.000121    0.61  0.000154  ( 0.001210  0.009425 -0.007991)
 17:    245.63   0.000198    1.00  0.000252  ( 0.015850 -0.000711  0.000640)
 18:    267.63   0.000042    0.21  0.000049  ( 0.000051  0.006121 -0.003335)
 19:    273.22   0.000082    0.41  0.000094  (-0.009682  0.000079 -0.000016)
 20:    282.30   0.000249    1.26  0.000275  (-0.000003  0.005771 -0.015557)
 21:    325.89   0.000033    0.17  0.000031  ( 0.000080  0.004303  0.003603)
 22:    336.83   0.000665    3.36  0.000616  ( 0.024824 -0.000034 -0.000020)
 23:    398.14   0.000047    0.24  0.000037  (-0.006070  0.000052 -0.000182)
 24:    400.05   0.004538   22.93  0.003540  ( 0.000033  0.010305 -0.058598)
 25:    461.88   0.000308    1.56  0.000208  (-0.000015 -0.014388  0.001052)
 26:    490.61   0.000032    0.16  0.000020  ( 0.004523 -0.000001 -0.000002)
 27:    553.71   0.002333   11.79  0.001315  ( 0.036257 -0.000019  0.000000)
 28:    605.13   0.000007    0.04  0.000004  (-0.000006 -0.001565 -0.001147)
 29:    652.36   0.000105    0.53  0.000050  (-0.007096  0.000002 -0.000004)
 30:    680.42   0.000091    0.46  0.000042  ( 0.000001 -0.000301 -0.006464)
 31:    706.61   0.000130    0.66  0.000057  ( 0.007572 -0.000007  0.000003)
 32:    750.97   0.001263    6.38  0.000525  ( 0.000033  0.022904  0.000294)
 33:    776.65   0.001459    7.37  0.000586  ( 0.024215 -0.000039  0.000003)
 34:    912.11   0.000945    4.78  0.000323  (-0.000014 -0.016977 -0.005927)
 35:    927.18   0.000532    2.69  0.000179  ( 0.013386 -0.000012  0.000052)
 36:    929.04   0.000805    4.07  0.000270  ( 0.000184  0.006061 -0.015280)
 37:    935.05   0.001689    8.54  0.000564  (-0.023742  0.000078 -0.000082)
 38:    954.75   0.000032    0.16  0.000010  ( 0.001464  0.001550 -0.002436)
 39:    954.84   0.000094    0.48  0.000031  ( 0.000805 -0.002981  0.004611)
 40:    971.76   0.000003    0.01  0.000001  ( 0.000007  0.000846  0.000391)
 41:   1036.59   0.003614   18.27  0.001088  (-0.032986 -0.000004  0.000018)
 42:   1038.57   0.001404    7.09  0.000422  ( 0.000033 -0.013314  0.015639)
 43:   1058.95   0.001291    6.52  0.000380  ( 0.019502 -0.000030  0.000005)
 44:   1079.48   0.005276   26.66  0.001525  (-0.000033 -0.038715 -0.005134)
 45:   1129.59   0.003717   18.78  0.001027  ( 0.032043 -0.000034 -0.000001)
 46:   1170.10   0.003917   19.79  0.001045  (-0.000078  0.002936 -0.032186)
 47:   1170.34   0.000086    0.43  0.000023  ( 0.004754  0.000033 -0.000576)
 48:   1174.27   0.000451    2.28  0.000120  (-0.000008 -0.010312  0.003685)
 49:   1190.84   0.001221    6.17  0.000320  ( 0.017886 -0.000025 -0.000001)
 50:   1209.28   0.000017    0.08  0.000004  ( 0.000036  0.002053  0.000351)
 51:   1274.02   0.018601   94.00  0.004556  (-0.067500  0.000055 -0.000008)
 52:   1327.84   0.000606    3.06  0.000142  (-0.000145 -0.011930 -0.000019)
 53:   1341.59   0.003808   19.24  0.000886  ( 0.029761 -0.000079 -0.000006)
 54:   1352.77   0.000502    2.54  0.000116  (-0.010740 -0.000660  0.000313)
 55:   1352.98   0.000177    0.90  0.000041  (-0.001340  0.005721 -0.002527)
 56:   1392.79   0.000012    0.06  0.000003  (-0.000017  0.000512 -0.001593)
 57:   1396.28   0.001020    5.15  0.000228  ( 0.015095  0.000008 -0.000142)
 58:   1396.68   0.010352   52.31  0.002313  ( 0.000137  0.008384 -0.047356)
 59:   1399.24   0.002607   13.18  0.000581  ( 0.024113  0.000013  0.000254)
 60:   1402.11   0.001605    8.11  0.000357  ( 0.000113 -0.016747  0.008757)
 61:   1403.74   0.000265    1.34  0.000059  ( 0.007672  0.000021  0.000034)
 62:   1429.60   0.009717   49.11  0.002121  ( 0.000075 -0.044822  0.010587)
 63:   1430.50   0.041181  208.11  0.008984  ( 0.094782 -0.000035 -0.000014)
 64:   1437.04   0.001620    8.19  0.000352  ( 0.000053 -0.018126  0.004834)
 65:   1437.75   0.000525    2.65  0.000114  ( 0.010667  0.000258  0.000161)
 66:   1442.93   0.003843   19.42  0.000831  ( 0.000007 -0.020202 -0.020567)
 67:   1445.10   0.000032    0.16  0.000007  (-0.002616 -0.000148 -0.000240)
 68:   1446.05   0.001084    5.48  0.000234  ( 0.000040 -0.006379 -0.013901)
 69:   1450.58   0.007488   37.84  0.001611  (-0.040137  0.000066  0.000003)
 70:   1456.69   0.004178   21.12  0.000895  (-0.000019 -0.027059 -0.012763)
 71:   1460.02   0.000583    2.95  0.000125  (-0.011155  0.000309  0.000250)
 72:   1461.84   0.004955   25.04  0.001058  ( 0.000253  0.025417  0.020290)
 73:   1463.78   0.000667    3.37  0.000142  ( 0.011927 -0.000033 -0.000022)
 74:   1471.71   0.000945    4.78  0.000200  ( 0.000076 -0.011524 -0.008222)
 75:   1474.24   0.005560   28.10  0.001177  (-0.034307  0.000005 -0.000015)
 76:   1480.29   0.000069    0.35  0.000015  (-0.000071 -0.003742 -0.000752)
 77:   1492.75   0.004961   25.07  0.001037  (-0.032203  0.000070  0.000018)
 78:   1736.09   0.000759    3.84  0.000137  ( 0.000015  0.011590  0.001481)
 79:   3068.94   0.000277    1.40  0.000028  (-0.002435 -0.001203  0.004563)
 80:   3069.03   0.009310   47.05  0.000947  ( 0.000348 -0.007928  0.029726)
 81:   3073.62   0.000393    1.98  0.000040  (-0.006270  0.000002  0.000738)
 82:   3073.78   0.002602   13.15  0.000264  (-0.000261  0.000164 -0.016251)
 83:   3076.41   0.013062   66.01  0.001325  ( 0.036400 -0.000022  0.000017)
 84:   3078.58   0.005336   26.97  0.000541  (-0.000007 -0.023249  0.000598)
 85:   3127.44   0.002934   14.83  0.000293  ( 0.000411 -0.015958 -0.006162)
 86:   3127.63   0.000522    2.64  0.000052  (-0.007150 -0.000933 -0.000373)
 87:   3165.02   0.000009    0.05  0.000001  ( 0.000443 -0.000308  0.000771)
 88:   3165.27   0.004830   24.41  0.000476  (-0.000027 -0.006474  0.020838)
 89:   3171.95   0.001143    5.77  0.000112  (-0.007059  0.000417 -0.007900)
 90:   3171.97   0.004210   21.28  0.000414  ( 0.002741  0.001051 -0.020139)
 91:   3173.07   0.012452   62.93  0.001225  ( 0.034986  0.000517 -0.000595)
 92:   3173.09   0.000606    3.06  0.000060  ( 0.005328 -0.004129  0.003759)
 93:   3175.04   0.000734    3.71  0.000072  ( 0.008312  0.001742  0.000164)
 94:   3175.49   0.012541   63.38  0.001232  (-0.000288  0.034987  0.002880)
 95:   3183.35   0.000362    1.83  0.000036  (-0.001209  0.005421  0.002162)
 96:   3183.47   0.010960   55.39  0.001074  (-0.000266 -0.030417 -0.012209)
 97:   3190.35   0.003537   17.88  0.000346  ( 0.018601 -0.000047 -0.000060)
 98:   3193.23   0.000216    1.09  0.000021  (-0.000178  0.002512 -0.003840)

--------------------------
THERMOCHEMISTRY AT 298.15K
--------------------------

Temperature         ... 298.15 K
Pressure            ... 1.00 atm
Total Mass          ... 180.29 AMU

Throughout the following assumptions are being made:
  (1) The electronic state is orbitally nondegenerate
  (2) There are no thermally accessible electronically excited states
  (3) Hindered rotations indicated by low frequency modes are not
      treated as such but are treated as vibrations and this may
      cause some error
  (4) All equations used are the standard statistical mechanics
      equations for an ideal gas
  (5) All vibrations are strictly harmonic

freq.      43.03  E(vib)   ...       0.53
freq.      55.46  E(vib)   ...       0.52
freq.      83.52  E(vib)   ...       0.48
freq.     105.38  E(vib)   ...       0.45
freq.     109.99  E(vib)   ...       0.45
freq.     114.03  E(vib)   ...       0.44
freq.     182.45  E(vib)   ...       0.37
freq.     190.57  E(vib)   ...       0.36
freq.     217.22  E(vib)   ...       0.34
freq.     220.66  E(vib)   ...       0.33
freq.     245.10  E(vib)   ...       0.31
freq.     245.63  E(vib)   ...       0.31
freq.     267.63  E(vib)   ...       0.29
freq.     273.22  E(vib)   ...       0.29
freq.     282.30  E(vib)   ...       0.28
freq.     325.89  E(vib)   ...       0.24
freq.     336.83  E(vib)   ...       0.24
freq.     398.14  E(vib)   ...       0.20
freq.     400.05  E(vib)   ...       0.19
freq.     461.88  E(vib)   ...       0.16
freq.     490.61  E(vib)   ...       0.15
freq.     553.71  E(vib)   ...       0.12
freq.     605.13  E(vib)   ...       0.10
freq.     652.36  E(vib)   ...       0.08
freq.     680.42  E(vib)   ...       0.08
freq.     706.61  E(vib)   ...       0.07
freq.     750.97  E(vib)   ...       0.06
freq.     776.65  E(vib)   ...       0.05
freq.     912.11  E(vib)   ...       0.03
freq.     927.18  E(vib)   ...       0.03
freq.     929.04  E(vib)   ...       0.03
freq.     935.05  E(vib)   ...       0.03
freq.     954.75  E(vib)   ...       0.03
freq.     954.84  E(vib)   ...       0.03
freq.     971.76  E(vib)   ...       0.03
freq.    1036.59  E(vib)   ...       0.02
freq.    1038.57  E(vib)   ...       0.02
freq.    1058.95  E(vib)   ...       0.02
freq.    1079.48  E(vib)   ...       0.02
freq.    1129.59  E(vib)   ...       0.01
freq.    1170.10  E(vib)   ...       0.01
freq.    1170.34  E(vib)   ...       0.01
freq.    1174.27  E(vib)   ...       0.01
freq.    1190.84  E(vib)   ...       0.01
freq.    1209.28  E(vib)   ...       0.01
freq.    1274.02  E(vib)   ...       0.01
freq.    1327.84  E(vib)   ...       0.01
freq.    1341.59  E(vib)   ...       0.01
freq.    1352.77  E(vib)   ...       0.01
freq.    1352.98  E(vib)   ...       0.01
freq.    1392.79  E(vib)   ...       0.00
freq.    1396.28  E(vib)   ...       0.00
freq.    1396.68  E(vib)   ...       0.00
freq.    1399.24  E(vib)   ...       0.00
freq.    1402.11  E(vib)   ...       0.00
freq.    1403.74  E(vib)   ...       0.00
freq.    1429.60  E(vib)   ...       0.00
freq.    1430.50  E(vib)   ...       0.00
freq.    1437.04  E(vib)   ...       0.00
freq.    1437.75  E(vib)   ...       0.00
freq.    1442.93  E(vib)   ...       0.00
freq.    1445.10  E(vib)   ...       0.00
freq.    1446.05  E(vib)   ...       0.00
freq.    1450.58  E(vib)   ...       0.00
freq.    1456.69  E(vib)   ...       0.00
freq.    1460.02  E(vib)   ...       0.00
freq.    1461.84  E(vib)   ...       0.00
freq.    1463.78  E(vib)   ...       0.00
freq.    1471.71  E(vib)   ...       0.00
freq.    1474.24  E(vib)   ...       0.00
freq.    1480.29  E(vib)   ...       0.00
freq.    1492.75  E(vib)   ...       0.00
freq.    1736.09  E(vib)   ...       0.00
freq.    3068.94  E(vib)   ...       0.00
freq.    3069.03  E(vib)   ...       0.00
freq.    3073.62  E(vib)   ...       0.00
freq.    3073.78  E(vib)   ...       0.00
freq.    3076.41  E(vib)   ...       0.00
freq.    3078.58  E(vib)   ...       0.00
freq.    3127.44  E(vib)   ...       0.00
freq.    3127.63  E(vib)   ...       0.00
freq.    3165.02  E(vib)   ...       0.00
freq.    3165.27  E(vib)   ...       0.00
freq.    3171.95  E(vib)   ...       0.00
freq.    3171.97  E(vib)   ...       0.00
freq.    3173.07  E(vib)   ...       0.00
freq.    3173.09  E(vib)   ...       0.00
freq.    3175.04  E(vib)   ...       0.00
freq.    3175.49  E(vib)   ...       0.00
freq.    3183.35  E(vib)   ...       0.00
freq.    3183.47  E(vib)   ...       0.00
freq.    3190.35  E(vib)   ...       0.00
freq.    3193.23  E(vib)   ...       0.00

------------
INNER ENERGY
------------

The inner energy is: U= E(el) + E(ZPE) + E(vib) + E(rot) + E(trans)
    E(el)   - is the total energy from the electronic structure calculation
              = E(kin-el) + E(nuc-el) + E(el-el) + E(nuc-nuc)
    E(ZPE)  - the the zero temperature vibrational energy from the frequency calculation
    E(vib)  - the the finite temperature correction to E(ZPE) due to population
              of excited vibrational states
    E(rot)  - is the rotational thermal energy
    E(trans)- is the translational thermal energy

Summary of contributions to the inner energy U:
Electronic energy                ...   -540.19322729 Eh
Zero point energy                ...      0.29728246 Eh     186.55 kcal/mol
Thermal vibrational correction   ...      0.01266844 Eh       7.95 kcal/mol
Thermal rotational correction    ...      0.00141627 Eh       0.89 kcal/mol
Thermal translational correction ...      0.00141627 Eh       0.89 kcal/mol
-----------------------------------------------------------------------
Total thermal energy                   -539.88044384 Eh

Summary of corrections to the electronic energy:
(perhaps to be used in another calculation)
Total thermal correction                  0.01550099 Eh       9.73 kcal/mol
Non-thermal (ZPE) correction              0.29728246 Eh     186.55 kcal/mol
-----------------------------------------------------------------------
Total correction                          0.31278345 Eh     196.27 kcal/mol

--------
ENTHALPY
--------

The enthalpy is H = U + kB*T
                kB is Boltzmann's constant
Total free energy                 ...   -539.88044384 Eh
Thermal Enthalpy correction       ...      0.00094421 Eh       0.59 kcal/mol
-----------------------------------------------------------------------
Total Enthalpy                    ...   -539.87949963 Eh

Note: Only C1 symmetry has been detected, increase convergence thresholds
      if your molecule has a higher symmetry. Symmetry factor of 1.0 is
      used for the rotational entropy correction.

Note: Rotational entropy computed according to Herzberg
Infrared and Raman Spectra, Chapter V,1, Van Nostrand Reinhold, 1945

Rotational constants in cm-1:     0.047084     0.016425     0.014487

                             ****ORCA TERMINATED NORMALLY****
TOTAL RUN TIME: 0 days 1 hours 51 minutes 19 seconds 102 msec
