                         Program Version 5.0.4 -  RELEASE  -
|  1> # ORCA 5.0.4 - /users/bwb16179/postgrad/2024_03/DFT_Crest_Conformers/Opt/deprot/6_deprot_aq_1.inp # write input file
|  2> # Basic Mode
|  3> #
|  4> ! Opt Freq wB97X Def2-SVP D4 SlowConv TightSCF Defgrid2 Def2/J RIJCOSX CPCM(Water)
|  5>
|  6>
|  7>
|  8> %maxcore 4500
|  9>
| 10> %geom
| 11> Maxiter 150
| 12> END
| 13>
| 14> * xyzfile 0 1 6_deprot_aq_1.xyz
| 15>
| 16>                          ****END OF INPUT****
 Total Charge           Charge          ....    0
 Multiplicity           Mult            ....    1
 Number of Electrons    NEL             ....  100
Dispersion correction           -0.005799554
FINAL SINGLE POINT ENERGY      -540.192816829236
Dispersion correction            ... Starting D4
Dispersion correction           -0.005740391
FINAL SINGLE POINT ENERGY      -540.197317546539
Dispersion correction            ... Starting D4
Dispersion correction           -0.005736107
FINAL SINGLE POINT ENERGY      -540.197667576284
Dispersion correction            ... Starting D4
FINAL SINGLE POINT ENERGY      -540.197766898563
Dispersion correction           -0.005733892
FINAL SINGLE POINT ENERGY      -540.197778540995
Dispersion correction            ... Starting D4
Dispersion correction           -0.005734010
FINAL SINGLE POINT ENERGY      -540.197780476136
Dispersion correction            ... Starting D4
                    ***********************HURRAY********************

CARTESIAN COORDINATES (ANGSTROEM)
---------------------------------
  N     -1.058198   -0.077467    0.088753
  C      0.000066   -0.919588   -0.000025
  N      1.058209   -0.077276   -0.088433
  C      0.679027    1.265674   -0.050695
  C     -0.679194    1.265556    0.051725
  C     -2.450951   -0.540542    0.136414
  C      2.450997   -0.540197   -0.136571
  C     -2.900621   -1.021018   -1.239363
  H     -3.055506    0.336428    0.413563
  C     -2.643776   -1.600893    1.213269
  H      3.055472    0.337040   -0.413044
  C      2.643781   -1.599679   -1.214292
  C      2.900825   -1.021767    1.238773
  C      1.642492    2.404662   -0.111372
  C     -1.642816    2.404372    0.113076
  H     -2.057840   -2.502839    0.983624
  H     -3.706426   -1.880697    1.277144
  H     -2.323280   -1.223833    2.196420
  H     -2.779634   -0.227051   -1.992989
  H     -3.959835   -1.320089   -1.218568
  H     -2.298965   -1.888845   -1.552890
  H      3.960034   -1.320830    1.217606
  H      2.299205   -1.889835    1.551698
  H      2.779943   -0.228389    1.993037
  H      2.323156   -1.221848   -2.197106
  H      2.057882   -2.501808   -0.985270
  H      3.706432   -1.879401   -1.278503
  H     -2.364287    2.374203   -0.719354
  H     -1.100632    3.357797    0.051523
  H     -2.218664    2.406501    1.052480
  H      2.218291    2.407471   -1.050805
  H      2.364013    2.374050    0.720999
  H      1.100186    3.357977   -0.049181

 Multiplicity           Mult            ....    1
 Number of Electrons    NEL             ....  100
 Basis Dimension        Dim             ....  282

ORBITAL ENERGIES
----------------

  NO   OCC          E(Eh)            E(eV)
   0   2.0000     -14.438399      -392.8888
   1   2.0000     -14.438399      -392.8888
   2   2.0000     -10.306279      -280.4481
   3   2.0000     -10.306246      -280.4472
   4   2.0000     -10.290807      -280.0271
   5   2.0000     -10.290295      -280.0132
   6   2.0000     -10.273007      -279.5427
   7   2.0000     -10.272948      -279.5411
   8   2.0000     -10.268313      -279.4150
   9   2.0000     -10.259853      -279.1848
  10   2.0000     -10.259852      -279.1848
  11   2.0000     -10.258731      -279.1543
  12   2.0000     -10.258720      -279.1540
  13   2.0000      -1.139880       -31.0177
  14   2.0000      -1.035053       -28.1652
  15   2.0000      -0.934949       -25.4413
  16   2.0000      -0.899421       -24.4745
  17   2.0000      -0.886410       -24.1204
  18   2.0000      -0.838800       -22.8249
  19   2.0000      -0.804611       -21.8946
  20   2.0000      -0.804295       -21.8860
  21   2.0000      -0.784436       -21.3456
  22   2.0000      -0.764738       -20.8096
  23   2.0000      -0.695745       -18.9322
  24   2.0000      -0.679329       -18.4855
  25   2.0000      -0.643793       -17.5185
  26   2.0000      -0.618779       -16.8378
  27   2.0000      -0.583470       -15.8770
  28   2.0000      -0.557061       -15.1584
  29   2.0000      -0.554570       -15.0906
  30   2.0000      -0.551702       -15.0126
  31   2.0000      -0.534522       -14.5451
  32   2.0000      -0.532645       -14.4940
  33   2.0000      -0.520012       -14.1502
  34   2.0000      -0.508380       -13.8337
  35   2.0000      -0.506814       -13.7911
  36   2.0000      -0.506241       -13.7755
  37   2.0000      -0.492718       -13.4075
  38   2.0000      -0.487277       -13.2595
  39   2.0000      -0.486325       -13.2336
  40   2.0000      -0.472700       -12.8628
  41   2.0000      -0.466592       -12.6966
  42   2.0000      -0.459253       -12.4969
  43   2.0000      -0.452458       -12.3120
  44   2.0000      -0.440241       -11.9796
  45   2.0000      -0.439966       -11.9721
  46   2.0000      -0.430624       -11.7179
  47   2.0000      -0.360562        -9.8114
  48   2.0000      -0.314541        -8.5591
  49   2.0000      -0.301810        -8.2127
  50   0.0000       0.128237         3.4895
  51   0.0000       0.136905         3.7254
  52   0.0000       0.139318         3.7910
  53   0.0000       0.151181         4.1138
  54   0.0000       0.168513         4.5855

MULLIKEN ATOMIC CHARGES
-----------------------
   0 N :   -0.223153
   1 C :   -0.203357
   2 N :   -0.223160
   3 C :   -0.120486
   4 C :   -0.120491
   5 C :   -0.002306
   6 C :   -0.002297
   7 C :    0.000220
   8 H :    0.034936
   9 C :   -0.003186
  10 H :    0.034935
  11 C :   -0.003184
  12 C :    0.000215
  13 C :    0.070335
  14 C :    0.070334
  15 H :    0.024990
  16 H :    0.038741
  17 H :    0.033613
  18 H :    0.034261
  19 H :    0.040127
  20 H :    0.025173
  21 H :    0.040123
  22 H :    0.025171
  23 H :    0.034260
  24 H :    0.033612
  25 H :    0.024987
  26 H :    0.038741
  27 H :    0.052975
  28 H :    0.036805
  29 H :    0.058641
  30 H :    0.058638
  31 H :    0.052978
  32 H :    0.036806
Sum of atomic charges:   -0.0000000

LOEWDIN ATOMIC CHARGES
----------------------
   0 N :    0.028545
   1 C :   -0.311195
   2 N :    0.028545
   3 C :   -0.048907
   4 C :   -0.048910
   5 C :    0.030619
   6 C :    0.030621
   7 C :   -0.060177
   8 H :    0.030716
   9 C :   -0.058966
  10 H :    0.030715
  11 C :   -0.058967
  12 C :   -0.060178
  13 C :   -0.060718
  14 C :   -0.060718
  15 H :    0.022386
  16 H :    0.032318
  17 H :    0.028546
  18 H :    0.028425
  19 H :    0.032669
  20 H :    0.024444
  21 H :    0.032668
  22 H :    0.024442
  23 H :    0.028424
  24 H :    0.028545
  25 H :    0.022385
  26 H :    0.032316
  27 H :    0.040845
  28 H :    0.043221
  29 H :    0.041637
  30 H :    0.041637
  31 H :    0.040846
  32 H :    0.043221

  Mayer bond orders larger than 0.100000
B(  0-N ,  1-C ) :   1.2505 B(  0-N ,  4-C ) :   1.1265 B(  0-N ,  5-C ) :   0.9024
B(  1-C ,  2-N ) :   1.2505 B(  2-N ,  3-C ) :   1.1265 B(  2-N ,  6-C ) :   0.9024
B(  3-C ,  4-C ) :   1.6516 B(  3-C , 13-C ) :   1.0911 B(  4-C , 14-C ) :   1.0911
B(  5-C ,  7-C ) :   1.0739 B(  5-C ,  8-H ) :   0.9390 B(  5-C ,  9-C ) :   1.0717
B(  6-C , 10-H ) :   0.9390 B(  6-C , 11-C ) :   1.0717 B(  6-C , 12-C ) :   1.0739
B(  7-C , 18-H ) :   0.9671 B(  7-C , 19-H ) :   0.9719 B(  7-C , 20-H ) :   0.9637
B(  9-C , 15-H ) :   0.9627 B(  9-C , 16-H ) :   0.9698 B(  9-C , 17-H ) :   0.9693
B( 11-C , 24-H ) :   0.9693 B( 11-C , 25-H ) :   0.9627 B( 11-C , 26-H ) :   0.9698
B( 12-C , 21-H ) :   0.9719 B( 12-C , 22-H ) :   0.9637 B( 12-C , 23-H ) :   0.9671
B( 13-C , 30-H ) :   0.9487 B( 13-C , 31-H ) :   0.9489 B( 13-C , 32-H ) :   0.9441
B( 14-C , 27-H ) :   0.9489 B( 14-C , 28-H ) :   0.9441 B( 14-C , 29-H ) :   0.9487

Dispersion correction           -0.005733866
FINAL SINGLE POINT ENERGY      -540.197778826107

DIPOLE MOMENT
-------------
                                X             Y             Z
Electronic contribution:      0.00004       2.50749       0.00165
Nuclear contribution   :     -0.00018      -0.84080      -0.00132
                        -----------------------------------------
Total Dipole Moment    :     -0.00015       1.66669       0.00033
                        -----------------------------------------
Magnitude (a.u.)       :      1.66669
Magnitude (Debye)      :      4.23639

Dispersion correction in the Hessian             ... Starting D4

VIBRATIONAL FREQUENCIES
-----------------------

Scaling factor for frequencies =  1.000000000  (already applied!)

   0:         0.00 cm**-1
   1:         0.00 cm**-1
   2:         0.00 cm**-1
   3:         0.00 cm**-1
   4:         0.00 cm**-1
   5:         0.00 cm**-1
   6:        52.19 cm**-1
   7:        55.05 cm**-1
   8:        90.39 cm**-1
   9:       112.58 cm**-1
  10:       156.86 cm**-1
  11:       157.53 cm**-1
  12:       183.33 cm**-1
  13:       216.01 cm**-1
  14:       233.04 cm**-1
  15:       249.13 cm**-1
  16:       250.85 cm**-1
  17:       275.27 cm**-1
  18:       281.90 cm**-1
  19:       283.27 cm**-1
  20:       289.69 cm**-1
  21:       324.93 cm**-1
  22:       325.64 cm**-1
  23:       400.71 cm**-1
  24:       428.21 cm**-1
  25:       477.55 cm**-1
  26:       495.46 cm**-1
  27:       551.40 cm**-1
  28:       617.94 cm**-1
  29:       638.40 cm**-1
  30:       685.25 cm**-1
  31:       698.83 cm**-1
  32:       747.91 cm**-1
  33:       812.91 cm**-1
  34:       914.10 cm**-1
  35:       931.13 cm**-1
  36:       935.05 cm**-1
  37:       936.15 cm**-1
  38:       962.00 cm**-1
  39:       963.27 cm**-1
  40:       967.99 cm**-1
  41:      1041.76 cm**-1
  42:      1064.33 cm**-1
  43:      1069.48 cm**-1
  44:      1093.08 cm**-1
  45:      1142.24 cm**-1
  46:      1148.21 cm**-1
  47:      1172.79 cm**-1
  48:      1173.25 cm**-1
  49:      1188.40 cm**-1
  50:      1219.18 cm**-1
  51:      1228.80 cm**-1
  52:      1349.06 cm**-1
  53:      1350.81 cm**-1
  54:      1350.94 cm**-1
  55:      1365.46 cm**-1
  56:      1393.73 cm**-1
  57:      1394.42 cm**-1
  58:      1399.17 cm**-1
  59:      1401.07 cm**-1
  60:      1401.18 cm**-1
  61:      1413.40 cm**-1
  62:      1433.54 cm**-1
  63:      1434.88 cm**-1
  64:      1440.07 cm**-1
  65:      1442.76 cm**-1
  66:      1446.03 cm**-1
  67:      1446.04 cm**-1
  68:      1452.59 cm**-1
  69:      1453.27 cm**-1
  70:      1453.79 cm**-1
  71:      1454.06 cm**-1
  72:      1458.27 cm**-1
  73:      1466.68 cm**-1
  74:      1469.83 cm**-1
  75:      1473.72 cm**-1
  76:      1487.67 cm**-1
  77:      1492.82 cm**-1
  78:      1754.14 cm**-1
  79:      3061.35 cm**-1
  80:      3061.47 cm**-1
  81:      3063.02 cm**-1
  82:      3064.69 cm**-1
  83:      3071.19 cm**-1
  84:      3071.25 cm**-1
  85:      3127.39 cm**-1
  86:      3127.58 cm**-1
  87:      3148.74 cm**-1
  88:      3148.95 cm**-1
  89:      3164.92 cm**-1
  90:      3164.94 cm**-1
  91:      3170.52 cm**-1
  92:      3170.53 cm**-1
  93:      3172.20 cm**-1
  94:      3172.25 cm**-1
  95:      3182.52 cm**-1
  96:      3182.84 cm**-1
  97:      3183.99 cm**-1
  98:      3187.04 cm**-1

IR SPECTRUM
-----------

 Mode   freq       eps      Int      T**2         TX        TY        TZ
       cm**-1   L/(mol*cm) km/mol    a.u.
----------------------------------------------------------------------------
  6:     52.19   0.000610    3.09  0.003650  (-0.014935  0.000005 -0.058543)
  7:     55.05   0.000001    0.00  0.000004  (-0.000005 -0.002060 -0.000098)
  8:     90.39   0.001271    6.43  0.004390  ( 0.000324 -0.000013  0.066253)
  9:    112.58   0.000000    0.00  0.000000  (-0.000003 -0.000328  0.000028)
 10:    156.86   0.000073    0.37  0.000145  (-0.004868  0.000045  0.010999)
 11:    157.53   0.000359    1.81  0.000711  ( 0.000032  0.026662 -0.000016)
 12:    183.33   0.000003    0.01  0.000005  (-0.000052 -0.002201  0.000064)
 13:    216.01   0.000001    0.01  0.000002  (-0.000018 -0.001301 -0.000001)
 14:    233.04   0.000995    5.03  0.001333  ( 0.035271 -0.000011 -0.009406)
 15:    249.13   0.000035    0.18  0.000044  ( 0.005860 -0.000027 -0.003104)
 16:    250.85   0.000000    0.00  0.000001  ( 0.000151  0.000724 -0.000086)
 17:    275.27   0.000087    0.44  0.000099  ( 0.003600  0.000027 -0.009276)
 18:    281.90   0.000140    0.71  0.000155  ( 0.010683  0.000211  0.006356)
 19:    283.27   0.000069    0.35  0.000076  ( 0.000290 -0.008700  0.000147)
 20:    289.69   0.000009    0.05  0.000010  (-0.000093 -0.003121 -0.000027)
 21:    324.93   0.000264    1.33  0.000253  ( 0.000158  0.015916 -0.000040)
 22:    325.64   0.000514    2.60  0.000493  (-0.021406  0.000125  0.005891)
 23:    400.71   0.003246   16.41  0.002528  (-0.001394  0.000004 -0.050261)
 24:    428.21   0.000938    4.74  0.000683  ( 0.011701 -0.000004  0.023378)
 25:    477.55   0.000113    0.57  0.000074  ( 0.000001 -0.008589  0.000001)
 26:    495.46   0.000003    0.01  0.000002  ( 0.000005 -0.001279  0.000004)
 27:    551.40   0.000622    3.14  0.000352  (-0.018570 -0.000002  0.002632)
 28:    617.94   0.001100    5.56  0.000555  (-0.000000  0.023566  0.000013)
 29:    638.40   0.000062    0.31  0.000030  (-0.005141 -0.000004 -0.001942)
 30:    685.25   0.000184    0.93  0.000084  (-0.007924 -0.000005 -0.004597)
 31:    698.83   0.000004    0.02  0.000002  ( 0.000011  0.001316 -0.000002)
 32:    747.91   0.001663    8.41  0.000694  ( 0.000001 -0.026344 -0.000010)
 33:    812.91   0.000597    3.02  0.000229  ( 0.015063 -0.000000  0.001499)
 34:    914.10   0.000065    0.33  0.000022  ( 0.000017  0.004698  0.000015)
 35:    931.13   0.001404    7.10  0.000471  (-0.020411  0.000023 -0.007349)
 36:    935.05   0.000081    0.41  0.000027  ( 0.000108  0.005201 -0.000066)
 37:    936.15   0.001227    6.20  0.000409  (-0.011013  0.000023  0.016958)
 38:    962.00   0.000004    0.02  0.000001  (-0.000006  0.001134 -0.000021)
 39:    963.27   0.000163    0.82  0.000053  (-0.003255 -0.000002 -0.006489)
 40:    967.99   0.000576    2.91  0.000186  ( 0.000005  0.013624  0.000006)
 41:   1041.76   0.000981    4.96  0.000294  ( 0.000577 -0.000005  0.017130)
 42:   1064.33   0.000014    0.07  0.000004  ( 0.000026 -0.002054  0.000017)
 43:   1069.48   0.002354   11.90  0.000687  ( 0.026122  0.000006 -0.002122)
 44:   1093.08   0.001326    6.70  0.000378  ( 0.000007 -0.019454 -0.000009)
 45:   1142.24   0.017377   87.82  0.004748  ( 0.068758  0.000023 -0.004460)
 46:   1148.21   0.001865    9.42  0.000507  ( 0.000064 -0.022513 -0.000014)
 47:   1172.79   0.003274   16.55  0.000871  (-0.002599 -0.000024  0.029402)
 48:   1173.25   0.000002    0.01  0.000001  (-0.000032  0.000641  0.000325)
 49:   1188.40   0.000228    1.15  0.000060  (-0.004339  0.000000 -0.006401)
 50:   1219.18   0.000234    1.18  0.000060  (-0.000005 -0.007732 -0.000002)
 51:   1228.80   0.002391   12.08  0.000607  (-0.024465 -0.000001  0.002943)
 52:   1349.06   0.001317    6.65  0.000305  ( 0.000009 -0.017453 -0.000005)
 53:   1350.81   0.000039    0.20  0.000009  ( 0.002916 -0.000004  0.000684)
 54:   1350.94   0.000008    0.04  0.000002  (-0.000018 -0.001324  0.000001)
 55:   1365.46   0.004636   23.43  0.001059  ( 0.032530  0.000007 -0.001128)
 56:   1393.73   0.000419    2.12  0.000094  ( 0.009281  0.000010 -0.002773)
 57:   1394.42   0.000958    4.84  0.000214  ( 0.000002  0.014646  0.000075)
 58:   1399.17   0.001838    9.29  0.000410  (-0.000048 -0.020248 -0.000106)
 59:   1401.07   0.000037    0.19  0.000008  (-0.000130  0.002755 -0.000755)
 60:   1401.18   0.008356   42.23  0.001861  ( 0.006293 -0.000037  0.042679)
 61:   1413.40   0.026190  132.36  0.005783  ( 0.076042 -0.000006 -0.000427)
 62:   1433.54   0.009835   49.70  0.002141  (-0.043820  0.000217  0.014854)
 63:   1434.88   0.012820   64.79  0.002788  ( 0.000176  0.052803 -0.000051)
 64:   1440.07   0.007077   35.76  0.001534  (-0.023533 -0.000007 -0.031301)
 65:   1442.76   0.000228    1.15  0.000049  ( 0.000047  0.007022  0.000030)
 66:   1446.03   0.000619    3.13  0.000134  (-0.000112  0.011355 -0.002143)
 67:   1446.04   0.000226    1.14  0.000049  ( 0.000255  0.004462  0.005359)
 68:   1452.59   0.000927    4.68  0.000199  (-0.012790  0.000026  0.005961)
 69:   1453.27   0.004142   20.93  0.000889  (-0.000035 -0.029821 -0.000038)
 70:   1453.79   0.000255    1.29  0.000055  ( 0.005869 -0.000784  0.004433)
 71:   1454.06   0.001462    7.39  0.000314  (-0.000233 -0.017714 -0.000159)
 72:   1458.27   0.000532    2.69  0.000114  (-0.000006 -0.010672 -0.000011)
 73:   1466.68   0.000303    1.53  0.000065  (-0.006727 -0.000007 -0.004390)
 74:   1469.83   0.000487    2.46  0.000104  (-0.000002  0.010174 -0.000002)
 75:   1473.72   0.009629   48.66  0.002039  (-0.044760  0.000004  0.005949)
 76:   1487.67   0.000776    3.92  0.000163  (-0.012660 -0.000024 -0.001602)
 77:   1492.82   0.003235   16.35  0.000676  ( 0.000018 -0.026005 -0.000005)
 78:   1754.14   0.000545    2.76  0.000097  (-0.000000 -0.009848 -0.000003)
 79:   3061.35   0.010365   52.38  0.001057  ( 0.017529  0.000033  0.027373)
 80:   3061.47   0.000095    0.48  0.000010  (-0.000236  0.003078 -0.000359)
 81:   3063.02   0.008437   42.64  0.000860  ( 0.028043 -0.000004 -0.008554)
 82:   3064.69   0.004180   21.13  0.000426  (-0.000008 -0.020632 -0.000003)
 83:   3071.19   0.004549   22.99  0.000462  (-0.010170  0.001866  0.018849)
 84:   3071.25   0.003037   15.35  0.000309  (-0.001093 -0.017416  0.002021)
 85:   3127.39   0.003496   17.67  0.000349  ( 0.016873 -0.000725 -0.007976)
 86:   3127.58   0.002056   10.39  0.000205  (-0.000854 -0.014290  0.000398)
 87:   3148.74   0.005193   26.25  0.000515  (-0.001676  0.000007 -0.022625)
 88:   3148.95   0.000002    0.01  0.000000  (-0.000004  0.000399 -0.000055)
 89:   3164.92   0.001478    7.47  0.000146  ( 0.002991 -0.001859  0.011548)
 90:   3164.94   0.009252   46.75  0.000912  (-0.000179 -0.030194 -0.000725)
 91:   3170.52   0.004010   20.27  0.000395  (-0.010753  0.000205  0.016705)
 92:   3170.53   0.000454    2.29  0.000045  ( 0.000360  0.006652 -0.000537)
 93:   3172.20   0.015538   78.52  0.001529  ( 0.037620 -0.000112  0.010646)
 94:   3172.25   0.001519    7.68  0.000149  ( 0.000318  0.012220  0.000083)
 95:   3182.52   0.007126   36.01  0.000699  ( 0.022315  0.000623 -0.014155)
 96:   3182.84   0.003614   18.26  0.000354  ( 0.000691 -0.018804 -0.000472)
 97:   3183.99   0.004445   22.46  0.000436  (-0.020496  0.000015  0.003950)
 98:   3187.04   0.002276   11.50  0.000223  ( 0.000014 -0.014930 -0.000005)

--------------------------
THERMOCHEMISTRY AT 298.15K
--------------------------

Temperature         ... 298.15 K
Pressure            ... 1.00 atm
Total Mass          ... 180.29 AMU

Throughout the following assumptions are being made:
  (1) The electronic state is orbitally nondegenerate
  (2) There are no thermally accessible electronically excited states
  (3) Hindered rotations indicated by low frequency modes are not
      treated as such but are treated as vibrations and this may
      cause some error
  (4) All equations used are the standard statistical mechanics
      equations for an ideal gas
  (5) All vibrations are strictly harmonic

freq.      52.19  E(vib)   ...       0.52
freq.      55.05  E(vib)   ...       0.52
freq.      90.39  E(vib)   ...       0.47
freq.     112.58  E(vib)   ...       0.45
freq.     156.86  E(vib)   ...       0.40
freq.     157.53  E(vib)   ...       0.40
freq.     183.33  E(vib)   ...       0.37
freq.     216.01  E(vib)   ...       0.34
freq.     233.04  E(vib)   ...       0.32
freq.     249.13  E(vib)   ...       0.31
freq.     250.85  E(vib)   ...       0.30
freq.     275.27  E(vib)   ...       0.28
freq.     281.90  E(vib)   ...       0.28
freq.     283.27  E(vib)   ...       0.28
freq.     289.69  E(vib)   ...       0.27
freq.     324.93  E(vib)   ...       0.24
freq.     325.64  E(vib)   ...       0.24
freq.     400.71  E(vib)   ...       0.19
freq.     428.21  E(vib)   ...       0.18
freq.     477.55  E(vib)   ...       0.15
freq.     495.46  E(vib)   ...       0.14
freq.     551.40  E(vib)   ...       0.12
freq.     617.94  E(vib)   ...       0.09
freq.     638.40  E(vib)   ...       0.09
freq.     685.25  E(vib)   ...       0.07
freq.     698.83  E(vib)   ...       0.07
freq.     747.91  E(vib)   ...       0.06
freq.     812.91  E(vib)   ...       0.05
freq.     914.10  E(vib)   ...       0.03
freq.     931.13  E(vib)   ...       0.03
freq.     935.05  E(vib)   ...       0.03
freq.     936.15  E(vib)   ...       0.03
freq.     962.00  E(vib)   ...       0.03
freq.     963.27  E(vib)   ...       0.03
freq.     967.99  E(vib)   ...       0.03
freq.    1041.76  E(vib)   ...       0.02
freq.    1064.33  E(vib)   ...       0.02
freq.    1069.48  E(vib)   ...       0.02
freq.    1093.08  E(vib)   ...       0.02
freq.    1142.24  E(vib)   ...       0.01
freq.    1148.21  E(vib)   ...       0.01
freq.    1172.79  E(vib)   ...       0.01
freq.    1173.25  E(vib)   ...       0.01
freq.    1188.40  E(vib)   ...       0.01
freq.    1219.18  E(vib)   ...       0.01
freq.    1228.80  E(vib)   ...       0.01
freq.    1349.06  E(vib)   ...       0.01
freq.    1350.81  E(vib)   ...       0.01
freq.    1350.94  E(vib)   ...       0.01
freq.    1365.46  E(vib)   ...       0.01
freq.    1393.73  E(vib)   ...       0.00
freq.    1394.42  E(vib)   ...       0.00
freq.    1399.17  E(vib)   ...       0.00
freq.    1401.07  E(vib)   ...       0.00
freq.    1401.18  E(vib)   ...       0.00
freq.    1413.40  E(vib)   ...       0.00
freq.    1433.54  E(vib)   ...       0.00
freq.    1434.88  E(vib)   ...       0.00
freq.    1440.07  E(vib)   ...       0.00
freq.    1442.76  E(vib)   ...       0.00
freq.    1446.03  E(vib)   ...       0.00
freq.    1446.04  E(vib)   ...       0.00
freq.    1452.59  E(vib)   ...       0.00
freq.    1453.27  E(vib)   ...       0.00
freq.    1453.79  E(vib)   ...       0.00
freq.    1454.06  E(vib)   ...       0.00
freq.    1458.27  E(vib)   ...       0.00
freq.    1466.68  E(vib)   ...       0.00
freq.    1469.83  E(vib)   ...       0.00
freq.    1473.72  E(vib)   ...       0.00
freq.    1487.67  E(vib)   ...       0.00
freq.    1492.82  E(vib)   ...       0.00
freq.    1754.14  E(vib)   ...       0.00
freq.    3061.35  E(vib)   ...       0.00
freq.    3061.47  E(vib)   ...       0.00
freq.    3063.02  E(vib)   ...       0.00
freq.    3064.69  E(vib)   ...       0.00
freq.    3071.19  E(vib)   ...       0.00
freq.    3071.25  E(vib)   ...       0.00
freq.    3127.39  E(vib)   ...       0.00
freq.    3127.58  E(vib)   ...       0.00
freq.    3148.74  E(vib)   ...       0.00
freq.    3148.95  E(vib)   ...       0.00
freq.    3164.92  E(vib)   ...       0.00
freq.    3164.94  E(vib)   ...       0.00
freq.    3170.52  E(vib)   ...       0.00
freq.    3170.53  E(vib)   ...       0.00
freq.    3172.20  E(vib)   ...       0.00
freq.    3172.25  E(vib)   ...       0.00
freq.    3182.52  E(vib)   ...       0.00
freq.    3182.84  E(vib)   ...       0.00
freq.    3183.99  E(vib)   ...       0.00
freq.    3187.04  E(vib)   ...       0.00

------------
INNER ENERGY
------------

The inner energy is: U= E(el) + E(ZPE) + E(vib) + E(rot) + E(trans)
    E(el)   - is the total energy from the electronic structure calculation
              = E(kin-el) + E(nuc-el) + E(el-el) + E(nuc-nuc)
    E(ZPE)  - the the zero temperature vibrational energy from the frequency calculation
    E(vib)  - the the finite temperature correction to E(ZPE) due to population
              of excited vibrational states
    E(rot)  - is the rotational thermal energy
    E(trans)- is the translational thermal energy

Summary of contributions to the inner energy U:
Electronic energy                ...   -540.19777883 Eh
Zero point energy                ...      0.29803032 Eh     187.02 kcal/mol
Thermal vibrational correction   ...      0.01221563 Eh       7.67 kcal/mol
Thermal rotational correction    ...      0.00141627 Eh       0.89 kcal/mol
Thermal translational correction ...      0.00141627 Eh       0.89 kcal/mol
-----------------------------------------------------------------------
Total thermal energy                   -539.88470033 Eh

Summary of corrections to the electronic energy:
(perhaps to be used in another calculation)
Total thermal correction                  0.01504817 Eh       9.44 kcal/mol
Non-thermal (ZPE) correction              0.29803032 Eh     187.02 kcal/mol
-----------------------------------------------------------------------
Total correction                          0.31307849 Eh     196.46 kcal/mol

--------
ENTHALPY
--------

The enthalpy is H = U + kB*T
                kB is Boltzmann's constant
Total free energy                 ...   -539.88470033 Eh
Thermal Enthalpy correction       ...      0.00094421 Eh       0.59 kcal/mol
-----------------------------------------------------------------------
Total Enthalpy                    ...   -539.88375612 Eh

Note: Only C1 symmetry has been detected, increase convergence thresholds
      if your molecule has a higher symmetry. Symmetry factor of 1.0 is
      used for the rotational entropy correction.

Note: Rotational entropy computed according to Herzberg
Infrared and Raman Spectra, Chapter V,1, Van Nostrand Reinhold, 1945

Rotational constants in cm-1:     0.035979     0.019227     0.014919

                             ****ORCA TERMINATED NORMALLY****
TOTAL RUN TIME: 0 days 1 hours 42 minutes 56 seconds 367 msec
