                         Program Version 5.0.4 -  RELEASE  -
|  1> # ORCA 5.0.4 - /users/bwb16179/postgrad/2024_03/DFT_Crest_Conformers/Opt/deprot/6_deprot_aq_5.inp # write input file
|  2> # Basic Mode
|  3> #
|  4> ! Opt Freq wB97X Def2-SVP D4 SlowConv TightSCF Defgrid2 Def2/J RIJCOSX CPCM(Water)
|  5>
|  6>
|  7>
|  8> %maxcore 4500
|  9>
| 10> %geom
| 11> Maxiter 150
| 12> END
| 13>
| 14> * xyzfile 0 1 6_deprot_aq_5.xyz
| 15>
| 16>                          ****END OF INPUT****
 Total Charge           Charge          ....    0
 Multiplicity           Mult            ....    1
 Number of Electrons    NEL             ....  100
Dispersion correction           -0.005784577
FINAL SINGLE POINT ENERGY      -540.190810707849
Dispersion correction            ... Starting D4
Dispersion correction           -0.005749062
FINAL SINGLE POINT ENERGY      -540.194866727757
Dispersion correction            ... Starting D4
Dispersion correction           -0.005744497
FINAL SINGLE POINT ENERGY      -540.195204733060
Dispersion correction            ... Starting D4
FINAL SINGLE POINT ENERGY      -540.195309604244
FINAL SINGLE POINT ENERGY      -540.195333429165
FINAL SINGLE POINT ENERGY      -540.195346923870
Dispersion correction           -0.005746153
FINAL SINGLE POINT ENERGY      -540.195355519278
Dispersion correction            ... Starting D4
Dispersion correction           -0.005746298
FINAL SINGLE POINT ENERGY      -540.195360381738
Dispersion correction            ... Starting D4
                    ***********************HURRAY********************

CARTESIAN COORDINATES (ANGSTROEM)
---------------------------------
  N     -1.139153   -0.129628   -0.114330
  C     -0.158806   -1.053173   -0.264298
  N      0.981417   -0.327558   -0.124810
  C      0.722540    1.026003    0.119962
  C     -0.635648    1.145651    0.132270
  C     -2.569342   -0.460939   -0.108683
  C      2.293223   -0.983344   -0.211885
  C     -2.930323   -1.387700   -1.261483
  H     -3.103536    0.489434   -0.260461
  C     -2.976300   -1.031218    1.246557
  H      2.028366   -2.030275   -0.419973
  C      3.046171   -0.952725    1.115141
  C      3.129903   -0.478585   -1.383883
  C      1.749238    2.097212    0.307724
  C     -1.500566    2.343492    0.349946
  H     -2.437326   -1.972893    1.438463
  H     -4.057681   -1.235722    1.272159
  H     -2.738572   -0.325362    2.057947
  H     -2.437573   -2.364255   -1.147807
  H     -2.618536   -0.954439   -2.224130
  H     -4.019339   -1.544983   -1.286330
  H      2.545270   -0.499346   -2.316314
  H      4.007634   -1.129623   -1.514639
  H      3.498046    0.546020   -1.224914
  H      3.938381   -1.593901    1.050076
  H      2.409291   -1.330150    1.929816
  H      3.384853    0.060279    1.379400
  H     -2.188999    2.198108    1.198012
  H     -2.111339    2.573299   -0.538015
  H     -0.882917    3.225052    0.567704
  H      1.246411    3.055415    0.495981
  H      2.381645    2.228639   -0.583230
  H      2.412338    1.897978    1.162834

 Multiplicity           Mult            ....    1
 Number of Electrons    NEL             ....  100
 Basis Dimension        Dim             ....  282

ORBITAL ENERGIES
----------------

  NO   OCC          E(Eh)            E(eV)
   0   2.0000     -14.440083      -392.9346
   1   2.0000     -14.438503      -392.8916
   2   2.0000     -10.306775      -280.4616
   3   2.0000     -10.305969      -280.4397
   4   2.0000     -10.292375      -280.0698
   5   2.0000     -10.291682      -280.0509
   6   2.0000     -10.273206      -279.5481
   7   2.0000     -10.272288      -279.5232
   8   2.0000     -10.269573      -279.4493
   9   2.0000     -10.261304      -279.2243
  10   2.0000     -10.261276      -279.2235
  11   2.0000     -10.260365      -279.1987
  12   2.0000     -10.259067      -279.1634
  13   2.0000      -1.139887       -31.0179
  14   2.0000      -1.035282       -28.1715
  15   2.0000      -0.934763       -25.4362
  16   2.0000      -0.902059       -24.5463
  17   2.0000      -0.885141       -24.0859
  18   2.0000      -0.841667       -22.9029
  19   2.0000      -0.806998       -21.9595
  20   2.0000      -0.804955       -21.9039
  21   2.0000      -0.786719       -21.4077
  22   2.0000      -0.758005       -20.6264
  23   2.0000      -0.707353       -19.2481
  24   2.0000      -0.666493       -18.1362
  25   2.0000      -0.657934       -17.9033
  26   2.0000      -0.604547       -16.4506
  27   2.0000      -0.582470       -15.8498
  28   2.0000      -0.571963       -15.5639
  29   2.0000      -0.554215       -15.0809
  30   2.0000      -0.547597       -14.9009
  31   2.0000      -0.534924       -14.5560
  32   2.0000      -0.533170       -14.5083
  33   2.0000      -0.528372       -14.3777
  34   2.0000      -0.513451       -13.9717
  35   2.0000      -0.508291       -13.8313
  36   2.0000      -0.504268       -13.7218
  37   2.0000      -0.491185       -13.3658
  38   2.0000      -0.488640       -13.2966
  39   2.0000      -0.481467       -13.1014
  40   2.0000      -0.474180       -12.9031
  41   2.0000      -0.466155       -12.6847
  42   2.0000      -0.463505       -12.6126
  43   2.0000      -0.453300       -12.3349
  44   2.0000      -0.441532       -12.0147
  45   2.0000      -0.435491       -11.8503
  46   2.0000      -0.426941       -11.6177
  47   2.0000      -0.361780        -9.8445
  48   2.0000      -0.316771        -8.6198
  49   2.0000      -0.303244        -8.2517
  50   0.0000       0.130121         3.5408
  51   0.0000       0.132336         3.6010
  52   0.0000       0.140215         3.8154
  53   0.0000       0.151585         4.1248
  54   0.0000       0.171278         4.6607

MULLIKEN ATOMIC CHARGES
-----------------------
   0 N :   -0.224192
   1 C :   -0.214931
   2 N :   -0.216987
   3 C :   -0.117909
   4 C :   -0.114975
   5 C :   -0.006812
   6 C :    0.007702
   7 C :   -0.001975
   8 H :    0.036121
   9 C :    0.001519
  10 H :    0.021149
  11 C :   -0.009434
  12 C :   -0.011476
  13 C :    0.071181
  14 C :    0.072067
  15 H :    0.026270
  16 H :    0.040829
  17 H :    0.034764
  18 H :    0.025657
  19 H :    0.033638
  20 H :    0.039416
  21 H :    0.037180
  22 H :    0.043250
  23 H :    0.028783
  24 H :    0.043135
  25 H :    0.036361
  26 H :    0.028100
  27 H :    0.052219
  28 H :    0.060071
  29 H :    0.037575
  30 H :    0.032401
  31 H :    0.056169
  32 H :    0.053133
Sum of atomic charges:   -0.0000000

LOEWDIN ATOMIC CHARGES
----------------------
   0 N :    0.026821
   1 C :   -0.316912
   2 N :    0.027342
   3 C :   -0.048419
   4 C :   -0.043433
   5 C :    0.030490
   6 C :    0.026922
   7 C :   -0.058317
   8 H :    0.030749
   9 C :   -0.059877
  10 H :    0.026784
  11 C :   -0.062487
  12 C :   -0.062736
  13 C :   -0.059348
  14 C :   -0.060366
  15 H :    0.025229
  16 H :    0.033101
  17 H :    0.028414
  18 H :    0.022668
  19 H :    0.028685
  20 H :    0.032708
  21 H :    0.030232
  22 H :    0.036435
  23 H :    0.025913
  24 H :    0.036158
  25 H :    0.029884
  26 H :    0.025796
  27 H :    0.041124
  28 H :    0.042545
  29 H :    0.043087
  30 H :    0.042929
  31 H :    0.039329
  32 H :    0.038550

  Mayer bond orders larger than 0.100000
B(  0-N ,  1-C ) :   1.2472 B(  0-N ,  4-C ) :   1.1308 B(  0-N ,  5-C ) :   0.9040
B(  1-C ,  2-N ) :   1.2460 B(  2-N ,  3-C ) :   1.1143 B(  2-N ,  6-C ) :   0.9186
B(  3-C ,  4-C ) :   1.6564 B(  3-C , 13-C ) :   1.0882 B(  4-C , 14-C ) :   1.0906
B(  5-C ,  7-C ) :   1.0717 B(  5-C ,  8-H ) :   0.9388 B(  5-C ,  9-C ) :   1.0740
B(  6-C , 10-H ) :   0.9263 B(  6-C , 11-C ) :   1.0719 B(  6-C , 12-C ) :   1.0709
B(  7-C , 18-H ) :   0.9626 B(  7-C , 19-H ) :   0.9692 B(  7-C , 20-H ) :   0.9693
B(  9-C , 15-H ) :   0.9636 B(  9-C , 16-H ) :   0.9721 B(  9-C , 17-H ) :   0.9662
B( 11-C , 24-H ) :   0.9690 B( 11-C , 25-H ) :   0.9670 B( 11-C , 26-H ) :   0.9634
B( 12-C , 21-H ) :   0.9673 B( 12-C , 22-H ) :   0.9687 B( 12-C , 23-H ) :   0.9641
B( 13-C , 30-H ) :   0.9423 B( 13-C , 31-H ) :   0.9488 B( 13-C , 32-H ) :   0.9494
B( 14-C , 27-H ) :   0.9480 B( 14-C , 28-H ) :   0.9481 B( 14-C , 29-H ) :   0.9436

Dispersion correction           -0.005746426
FINAL SINGLE POINT ENERGY      -540.195364609132

DIPOLE MOMENT
-------------
                                X             Y             Z
Electronic contribution:     -0.94974       0.20146      -0.83143
Nuclear contribution   :      1.06333       1.41086       1.15944
                        -----------------------------------------
Total Dipole Moment    :      0.11358       1.61232       0.32801
                        -----------------------------------------
Magnitude (a.u.)       :      1.64926
Magnitude (Debye)      :      4.19208

Dispersion correction in the Hessian             ... Starting D4

VIBRATIONAL FREQUENCIES
-----------------------

Scaling factor for frequencies =  1.000000000  (already applied!)

   0:         0.00 cm**-1
   1:         0.00 cm**-1
   2:         0.00 cm**-1
   3:         0.00 cm**-1
   4:         0.00 cm**-1
   5:         0.00 cm**-1
   6:       -59.28 cm**-1 ***imaginary mode***
   7:        -9.63 cm**-1 ***imaginary mode***
   8:        81.78 cm**-1
   9:       102.66 cm**-1
  10:       142.10 cm**-1
  11:       168.88 cm**-1
  12:       200.26 cm**-1
  13:       207.29 cm**-1
  14:       221.49 cm**-1
  15:       235.88 cm**-1
  16:       243.69 cm**-1
  17:       249.07 cm**-1
  18:       263.00 cm**-1
  19:       285.65 cm**-1
  20:       289.55 cm**-1
  21:       324.78 cm**-1
  22:       338.37 cm**-1
  23:       396.82 cm**-1
  24:       414.16 cm**-1
  25:       476.43 cm**-1
  26:       493.15 cm**-1
  27:       552.90 cm**-1
  28:       585.49 cm**-1
  29:       663.93 cm**-1
  30:       681.33 cm**-1
  31:       701.78 cm**-1
  32:       745.33 cm**-1
  33:       796.76 cm**-1
  34:       913.87 cm**-1
  35:       928.49 cm**-1
  36:       929.83 cm**-1
  37:       935.47 cm**-1
  38:       956.26 cm**-1
  39:       962.06 cm**-1
  40:       971.26 cm**-1
  41:      1036.91 cm**-1
  42:      1049.56 cm**-1
  43:      1060.96 cm**-1
  44:      1095.58 cm**-1
  45:      1125.59 cm**-1
  46:      1160.71 cm**-1
  47:      1171.60 cm**-1
  48:      1171.64 cm**-1
  49:      1188.60 cm**-1
  50:      1216.49 cm**-1
  51:      1253.53 cm**-1
  52:      1333.28 cm**-1
  53:      1347.83 cm**-1
  54:      1353.84 cm**-1
  55:      1361.00 cm**-1
  56:      1392.91 cm**-1
  57:      1395.00 cm**-1
  58:      1398.26 cm**-1
  59:      1398.90 cm**-1
  60:      1399.79 cm**-1
  61:      1407.77 cm**-1
  62:      1430.38 cm**-1
  63:      1435.57 cm**-1
  64:      1440.61 cm**-1
  65:      1442.58 cm**-1
  66:      1445.18 cm**-1
  67:      1446.52 cm**-1
  68:      1447.24 cm**-1
  69:      1449.76 cm**-1
  70:      1451.68 cm**-1
  71:      1455.70 cm**-1
  72:      1464.76 cm**-1
  73:      1465.86 cm**-1
  74:      1467.34 cm**-1
  75:      1477.21 cm**-1
  76:      1482.52 cm**-1
  77:      1488.81 cm**-1
  78:      1746.08 cm**-1
  79:      3060.17 cm**-1
  80:      3064.78 cm**-1
  81:      3070.10 cm**-1
  82:      3071.40 cm**-1
  83:      3071.98 cm**-1
  84:      3080.86 cm**-1
  85:      3125.31 cm**-1
  86:      3131.03 cm**-1
  87:      3149.21 cm**-1
  88:      3163.53 cm**-1
  89:      3166.86 cm**-1
  90:      3169.68 cm**-1
  91:      3171.46 cm**-1
  92:      3172.10 cm**-1
  93:      3172.53 cm**-1
  94:      3179.77 cm**-1
  95:      3180.70 cm**-1
  96:      3183.29 cm**-1
  97:      3187.84 cm**-1
  98:      3191.82 cm**-1

IR SPECTRUM
-----------

 Mode   freq       eps      Int      T**2         TX        TY        TZ
       cm**-1   L/(mol*cm) km/mol    a.u.
----------------------------------------------------------------------------
  8:     81.78   0.001289    6.51  0.004918  (-0.003602  0.012878 -0.068840)
  9:    102.66   0.000337    1.70  0.001024  ( 0.004255  0.005892 -0.031161)
 10:    142.10   0.000256    1.29  0.000563  ( 0.002589  0.000185 -0.023576)
 11:    168.88   0.000428    2.16  0.000791  ( 0.006492 -0.027353 -0.000697)
 12:    200.26   0.000021    0.10  0.000032  ( 0.000701 -0.000290  0.005611)
 13:    207.29   0.000010    0.05  0.000015  ( 0.003001 -0.002418  0.000435)
 14:    221.49   0.000036    0.18  0.000051  ( 0.003603  0.006098 -0.000794)
 15:    235.88   0.000249    1.26  0.000330  ( 0.014923 -0.010245  0.001507)
 16:    243.69   0.000483    2.44  0.000618  ( 0.023922  0.004381  0.005145)
 17:    249.07   0.000028    0.14  0.000035  (-0.004101 -0.003800  0.001822)
 18:    263.00   0.000006    0.03  0.000007  ( 0.002308  0.001080 -0.000887)
 19:    285.65   0.000175    0.88  0.000191  ( 0.003763 -0.012057  0.005604)
 20:    289.55   0.000175    0.88  0.000188  (-0.003371 -0.000317  0.013299)
 21:    324.78   0.000146    0.74  0.000141  ( 0.010069 -0.005875  0.002164)
 22:    338.37   0.000579    2.92  0.000534  ( 0.022550  0.004948  0.000885)
 23:    396.82   0.003047   15.40  0.002396  ( 0.001056  0.004751 -0.048706)
 24:    414.16   0.001240    6.26  0.000934  ( 0.000173 -0.009165  0.029154)
 25:    476.43   0.000710    3.59  0.000465  (-0.020869  0.004538  0.003016)
 26:    493.15   0.000084    0.43  0.000053  ( 0.006796 -0.002607  0.000591)
 27:    552.90   0.000505    2.55  0.000285  (-0.007368  0.014618  0.004118)
 28:    585.49   0.000809    4.09  0.000431  (-0.019689 -0.006507 -0.000973)
 29:    663.93   0.000024    0.12  0.000011  (-0.002060 -0.001326  0.002284)
 30:    681.33   0.000096    0.49  0.000044  ( 0.003155  0.001592 -0.005615)
 31:    701.78   0.000067    0.34  0.000030  (-0.004578 -0.001699  0.002453)
 32:    745.33   0.001734    8.76  0.000726  (-0.009345 -0.024843 -0.004629)
 33:    796.76   0.001043    5.27  0.000408  ( 0.020122  0.000443 -0.001847)
 34:    913.87   0.000335    1.69  0.000114  ( 0.006586  0.008386 -0.000866)
 35:    928.49   0.000221    1.12  0.000074  (-0.005126  0.005757 -0.003854)
 36:    929.83   0.000983    4.97  0.000330  (-0.005646  0.006334  0.016062)
 37:    935.47   0.001836    9.28  0.000612  (-0.022992  0.009036 -0.001483)
 38:    956.26   0.000069    0.35  0.000022  (-0.001024  0.001842 -0.004237)
 39:    962.06   0.000105    0.53  0.000034  (-0.001544  0.001263  0.005481)
 40:    971.26   0.000200    1.01  0.000064  ( 0.004185  0.006616  0.001699)
 41:   1036.91   0.000915    4.63  0.000276  (-0.001472 -0.004111  0.016014)
 42:   1049.56   0.004761   24.06  0.001416  (-0.030988  0.021077  0.003323)
 43:   1060.96   0.000081    0.41  0.000024  (-0.003238  0.002276 -0.002858)
 44:   1095.58   0.003328   16.82  0.000948  ( 0.021067  0.022044  0.004257)
 45:   1125.59   0.006612   33.41  0.001833  ( 0.041142 -0.011733 -0.001648)
 46:   1160.71   0.000704    3.56  0.000189  ( 0.002334 -0.012899 -0.004190)
 47:   1171.60   0.001329    6.72  0.000354  ( 0.001860  0.002734 -0.018521)
 48:   1171.64   0.002468   12.47  0.000657  (-0.004286  0.004222 -0.024925)
 49:   1188.60   0.002179   11.01  0.000572  ( 0.022827  0.007136 -0.000299)
 50:   1216.49   0.000342    1.73  0.000088  ( 0.008143  0.004617  0.000435)
 51:   1253.53   0.007776   39.29  0.001936  ( 0.043659 -0.005424  0.000421)
 52:   1333.28   0.007487   37.84  0.001752  ( 0.039403 -0.013901 -0.002558)
 53:   1347.83   0.000123    0.62  0.000029  (-0.003999 -0.003282  0.001345)
 54:   1353.84   0.000044    0.22  0.000010  ( 0.001430 -0.001703  0.002288)
 55:   1361.00   0.003631   18.35  0.000832  ( 0.026577 -0.010893 -0.002729)
 56:   1392.91   0.000493    2.49  0.000110  ( 0.005485 -0.007941  0.004165)
 57:   1395.00   0.001407    7.11  0.000315  ( 0.011191  0.013222 -0.003824)
 58:   1398.26   0.004736   23.93  0.001057  ( 0.013746 -0.002603 -0.029348)
 59:   1398.90   0.003156   15.95  0.000704  ( 0.021368 -0.014482  0.006151)
 60:   1399.79   0.005265   26.61  0.001174  ( 0.001278 -0.004139  0.033986)
 61:   1407.77   0.003780   19.10  0.000838  (-0.028246 -0.006313 -0.000515)
 62:   1430.38   0.028371  143.37  0.006190  (-0.075930  0.020498 -0.002025)
 63:   1435.57   0.018823   95.12  0.004092  (-0.044676 -0.045780  0.000162)
 64:   1440.61   0.004020   20.32  0.000871  ( 0.011781 -0.003527 -0.026827)
 65:   1442.58   0.000157    0.79  0.000034  ( 0.002521 -0.000351  0.005247)
 66:   1445.18   0.001850    9.35  0.000400  (-0.001694 -0.004510 -0.019399)
 67:   1446.52   0.001027    5.19  0.000221  ( 0.000404 -0.014563 -0.003040)
 68:   1447.24   0.001181    5.97  0.000255  ( 0.002013 -0.015016 -0.005013)
 69:   1449.76   0.001706    8.62  0.000367  (-0.011352 -0.015425  0.000638)
 70:   1451.68   0.002573   13.00  0.000553  (-0.017244  0.015072 -0.005342)
 71:   1455.70   0.001246    6.30  0.000267  (-0.010902 -0.011881 -0.002685)
 72:   1464.76   0.001378    6.96  0.000294  (-0.005140  0.015908 -0.003749)
 73:   1465.86   0.001643    8.31  0.000350  (-0.016377  0.004651  0.007748)
 74:   1467.34   0.002916   14.74  0.000620  (-0.001917  0.023806  0.007056)
 75:   1477.21   0.005671   28.66  0.001198  (-0.034277 -0.004386 -0.001970)
 76:   1482.52   0.002811   14.20  0.000592  ( 0.023469 -0.006048  0.002072)
 77:   1488.81   0.002520   12.74  0.000528  (-0.017717 -0.014634 -0.000489)
 78:   1746.08   0.000719    3.63  0.000128  (-0.000273  0.010959  0.002881)
 79:   3060.17   0.004679   23.65  0.000477  ( 0.008012  0.004081 -0.019907)
 80:   3064.78   0.006389   32.29  0.000651  (-0.021135  0.014246  0.000958)
 81:   3070.10   0.006020   30.42  0.000612  ( 0.000268  0.004427 -0.024335)
 82:   3071.40   0.003952   19.97  0.000402  (-0.009231 -0.010599 -0.014283)
 83:   3071.98   0.000847    4.28  0.000086  (-0.008803  0.002866  0.000543)
 84:   3080.86   0.009037   45.67  0.000915  (-0.026674 -0.014084 -0.002359)
 85:   3125.31   0.002905   14.68  0.000290  (-0.011406  0.011788 -0.004581)
 86:   3131.03   0.001509    7.63  0.000150  ( 0.004223 -0.011247 -0.002467)
 87:   3149.21   0.002400   12.13  0.000238  ( 0.000446  0.002324 -0.015240)
 88:   3163.53   0.005412   27.35  0.000534  (-0.001970  0.021178  0.009026)
 89:   3166.86   0.002981   15.06  0.000294  ( 0.000452  0.002513 -0.016948)
 90:   3169.68   0.002990   15.11  0.000294  ( 0.013987 -0.002437  0.009634)
 91:   3171.46   0.002805   14.17  0.000276  ( 0.002631  0.003253 -0.016076)
 92:   3172.10   0.008203   41.46  0.000807  ( 0.025228  0.008124 -0.010227)
 93:   3172.53   0.006550   33.10  0.000644  ( 0.024432 -0.006751  0.001342)
 94:   3179.77   0.010169   51.39  0.000998  (-0.000443 -0.030934 -0.006394)
 95:   3180.70   0.001374    6.94  0.000135  (-0.001021 -0.011404 -0.001925)
 96:   3183.29   0.005850   29.56  0.000573  ( 0.016317 -0.015732  0.007730)
 97:   3187.84   0.003716   18.78  0.000364  ( 0.016699  0.008837  0.002618)
 98:   3191.82   0.001131    5.72  0.000111  (-0.007599  0.007191  0.001078)

--------------------------
THERMOCHEMISTRY AT 298.15K
--------------------------

Temperature         ... 298.15 K
Pressure            ... 1.00 atm
Total Mass          ... 180.29 AMU

Throughout the following assumptions are being made:
  (1) The electronic state is orbitally nondegenerate
  (2) There are no thermally accessible electronically excited states
  (3) Hindered rotations indicated by low frequency modes are not
      treated as such but are treated as vibrations and this may
      cause some error
  (4) All equations used are the standard statistical mechanics
      equations for an ideal gas
  (5) All vibrations are strictly harmonic

freq.      81.78  E(vib)   ...       0.48
freq.     102.66  E(vib)   ...       0.46
freq.     142.10  E(vib)   ...       0.41
freq.     168.88  E(vib)   ...       0.38
freq.     200.26  E(vib)   ...       0.35
freq.     207.29  E(vib)   ...       0.34
freq.     221.49  E(vib)   ...       0.33
freq.     235.88  E(vib)   ...       0.32
freq.     243.69  E(vib)   ...       0.31
freq.     249.07  E(vib)   ...       0.31
freq.     263.00  E(vib)   ...       0.29
freq.     285.65  E(vib)   ...       0.28
freq.     289.55  E(vib)   ...       0.27
freq.     324.78  E(vib)   ...       0.24
freq.     338.37  E(vib)   ...       0.23
freq.     396.82  E(vib)   ...       0.20
freq.     414.16  E(vib)   ...       0.19
freq.     476.43  E(vib)   ...       0.15
freq.     493.15  E(vib)   ...       0.14
freq.     552.90  E(vib)   ...       0.12
freq.     585.49  E(vib)   ...       0.11
freq.     663.93  E(vib)   ...       0.08
freq.     681.33  E(vib)   ...       0.08
freq.     701.78  E(vib)   ...       0.07
freq.     745.33  E(vib)   ...       0.06
freq.     796.76  E(vib)   ...       0.05
freq.     913.87  E(vib)   ...       0.03
freq.     928.49  E(vib)   ...       0.03
freq.     929.83  E(vib)   ...       0.03
freq.     935.47  E(vib)   ...       0.03
freq.     956.26  E(vib)   ...       0.03
freq.     962.06  E(vib)   ...       0.03
freq.     971.26  E(vib)   ...       0.03
freq.    1036.91  E(vib)   ...       0.02
freq.    1049.56  E(vib)   ...       0.02
freq.    1060.96  E(vib)   ...       0.02
freq.    1095.58  E(vib)   ...       0.02
freq.    1125.59  E(vib)   ...       0.01
freq.    1160.71  E(vib)   ...       0.01
freq.    1171.60  E(vib)   ...       0.01
freq.    1171.64  E(vib)   ...       0.01
freq.    1188.60  E(vib)   ...       0.01
freq.    1216.49  E(vib)   ...       0.01
freq.    1253.53  E(vib)   ...       0.01
freq.    1333.28  E(vib)   ...       0.01
freq.    1347.83  E(vib)   ...       0.01
freq.    1353.84  E(vib)   ...       0.01
freq.    1361.00  E(vib)   ...       0.01
freq.    1392.91  E(vib)   ...       0.00
freq.    1395.00  E(vib)   ...       0.00
freq.    1398.26  E(vib)   ...       0.00
freq.    1398.90  E(vib)   ...       0.00
freq.    1399.79  E(vib)   ...       0.00
freq.    1407.77  E(vib)   ...       0.00
freq.    1430.38  E(vib)   ...       0.00
freq.    1435.57  E(vib)   ...       0.00
freq.    1440.61  E(vib)   ...       0.00
freq.    1442.58  E(vib)   ...       0.00
freq.    1445.18  E(vib)   ...       0.00
freq.    1446.52  E(vib)   ...       0.00
freq.    1447.24  E(vib)   ...       0.00
freq.    1449.76  E(vib)   ...       0.00
freq.    1451.68  E(vib)   ...       0.00
freq.    1455.70  E(vib)   ...       0.00
freq.    1464.76  E(vib)   ...       0.00
freq.    1465.86  E(vib)   ...       0.00
freq.    1467.34  E(vib)   ...       0.00
freq.    1477.21  E(vib)   ...       0.00
freq.    1482.52  E(vib)   ...       0.00
freq.    1488.81  E(vib)   ...       0.00
freq.    1746.08  E(vib)   ...       0.00
freq.    3060.17  E(vib)   ...       0.00
freq.    3064.78  E(vib)   ...       0.00
freq.    3070.10  E(vib)   ...       0.00
freq.    3071.40  E(vib)   ...       0.00
freq.    3071.98  E(vib)   ...       0.00
freq.    3080.86  E(vib)   ...       0.00
freq.    3125.31  E(vib)   ...       0.00
freq.    3131.03  E(vib)   ...       0.00
freq.    3149.21  E(vib)   ...       0.00
freq.    3163.53  E(vib)   ...       0.00
freq.    3166.86  E(vib)   ...       0.00
freq.    3169.68  E(vib)   ...       0.00
freq.    3171.46  E(vib)   ...       0.00
freq.    3172.10  E(vib)   ...       0.00
freq.    3172.53  E(vib)   ...       0.00
freq.    3179.77  E(vib)   ...       0.00
freq.    3180.70  E(vib)   ...       0.00
freq.    3183.29  E(vib)   ...       0.00
freq.    3187.84  E(vib)   ...       0.00
freq.    3191.82  E(vib)   ...       0.00

------------
INNER ENERGY
------------

The inner energy is: U= E(el) + E(ZPE) + E(vib) + E(rot) + E(trans)
    E(el)   - is the total energy from the electronic structure calculation
              = E(kin-el) + E(nuc-el) + E(el-el) + E(nuc-nuc)
    E(ZPE)  - the the zero temperature vibrational energy from the frequency calculation
    E(vib)  - the the finite temperature correction to E(ZPE) due to population
              of excited vibrational states
    E(rot)  - is the rotational thermal energy
    E(trans)- is the translational thermal energy

Summary of contributions to the inner energy U:
Electronic energy                ...   -540.19536461 Eh
Zero point energy                ...      0.29748707 Eh     186.68 kcal/mol
Thermal vibrational correction   ...      0.01071524 Eh       6.72 kcal/mol
Thermal rotational correction    ...      0.00141627 Eh       0.89 kcal/mol
Thermal translational correction ...      0.00141627 Eh       0.89 kcal/mol
-----------------------------------------------------------------------
Total thermal energy                   -539.88432975 Eh

Summary of corrections to the electronic energy:
(perhaps to be used in another calculation)
Total thermal correction                  0.01354779 Eh       8.50 kcal/mol
Non-thermal (ZPE) correction              0.29748707 Eh     186.68 kcal/mol
-----------------------------------------------------------------------
Total correction                          0.31103486 Eh     195.18 kcal/mol

--------
ENTHALPY
--------

The enthalpy is H = U + kB*T
                kB is Boltzmann's constant
Total free energy                 ...   -539.88432975 Eh
Thermal Enthalpy correction       ...      0.00094421 Eh       0.59 kcal/mol
-----------------------------------------------------------------------
Total Enthalpy                    ...   -539.88338554 Eh

Note: Only C1 symmetry has been detected, increase convergence thresholds
      if your molecule has a higher symmetry. Symmetry factor of 1.0 is
      used for the rotational entropy correction.

Note: Rotational entropy computed according to Herzberg
Infrared and Raman Spectra, Chapter V,1, Van Nostrand Reinhold, 1945
Point Group:  C1, Symmetry Number:   1
Rotational constants in cm-1:     0.041494     0.017492     0.014646

                             ****ORCA TERMINATED NORMALLY****
TOTAL RUN TIME: 0 days 2 hours 8 minutes 46 seconds 299 msec
