                         Program Version 5.0.4 -  RELEASE  -
|  1> # ORCA 5.0.4 - /users/bwb16179/postgrad/2024_03/DFT_Crest_Conformers/Opt/deprot/6_deprot_aq_3.inp # write input file
|  2> # Basic Mode
|  3> #
|  4> ! Opt Freq wB97X Def2-SVP D4 SlowConv TightSCF Defgrid2 Def2/J RIJCOSX CPCM(Water)
|  5>
|  6>
|  7>
|  8> %maxcore 4500
|  9>
| 10> %geom
| 11> Maxiter 150
| 12> END
| 13>
| 14> * xyzfile 0 1 6_deprot_aq_3.xyz
| 15>
| 16>                          ****END OF INPUT****
 Total Charge           Charge          ....    0
 Multiplicity           Mult            ....    1
 Number of Electrons    NEL             ....  100
Dispersion correction           -0.005799417
FINAL SINGLE POINT ENERGY      -540.192626126427
Dispersion correction            ... Starting D4
Dispersion correction           -0.005738445
FINAL SINGLE POINT ENERGY      -540.197154446412
Dispersion correction            ... Starting D4
Dispersion correction           -0.005732389
FINAL SINGLE POINT ENERGY      -540.197522908058
Dispersion correction            ... Starting D4
FINAL SINGLE POINT ENERGY      -540.197616540574
FINAL SINGLE POINT ENERGY      -540.197630377573
FINAL SINGLE POINT ENERGY      -540.197637661588
FINAL SINGLE POINT ENERGY      -540.197641737685
FINAL SINGLE POINT ENERGY      -540.197649145113
FINAL SINGLE POINT ENERGY      -540.197656223414
FINAL SINGLE POINT ENERGY      -540.197664325353
Dispersion correction           -0.005728859
FINAL SINGLE POINT ENERGY      -540.197670830107
Dispersion correction            ... Starting D4
Dispersion correction           -0.005728961
FINAL SINGLE POINT ENERGY      -540.197674949269
Dispersion correction            ... Starting D4
                    ***********************HURRAY********************

CARTESIAN COORDINATES (ANGSTROEM)
---------------------------------
  N     -1.060780   -0.072840    0.053194
  C      0.000882   -0.914947    0.034323
  N      1.061731   -0.072820   -0.011156
  C      0.680489    1.270223   -0.022176
  C     -0.680958    1.270217    0.018856
  C     -2.452097   -0.540358    0.102222
  C      2.453363   -0.540283   -0.051016
  C     -2.802863   -1.334271   -1.150775
  H     -3.075971    0.365635    0.119354
  C     -2.718367   -1.322009    1.383236
  H      3.077106    0.365794   -0.067900
  C      2.725087   -1.326857   -1.327979
  C      2.799238   -1.329226    1.206309
  C      1.644436    2.409791   -0.067113
  C     -1.646076    2.409623    0.028969
  H     -2.480680   -0.713924    2.269682
  H     -2.101470   -2.233206    1.413471
  H     -3.778160   -1.614477    1.437006
  H     -3.863554   -1.627800   -1.132310
  H     -2.187569   -2.245106   -1.212154
  H     -2.624794   -0.734733   -2.056864
  H      3.860487   -1.621033    1.192894
  H      2.185622   -2.240963    1.268902
  H      2.616855   -0.726580    2.109438
  H      2.106176   -2.236855   -1.357352
  H      3.784516   -1.621599   -1.376028
  H      2.492514   -0.721625   -2.217764
  H     -1.100389    3.362355   -0.006951
  H     -2.266623    2.412879    0.939528
  H     -2.325174    2.378770   -0.838239
  H      2.314603    2.413157    0.807606
  H      1.097109    3.362262   -0.072530
  H      2.274005    2.379545   -0.970880

 Multiplicity           Mult            ....    1
 Number of Electrons    NEL             ....  100
 Basis Dimension        Dim             ....  282

ORBITAL ENERGIES
----------------

  NO   OCC          E(Eh)            E(eV)
   0   2.0000     -14.438466      -392.8906
   1   2.0000     -14.438464      -392.8906
   2   2.0000     -10.306051      -280.4419
   3   2.0000     -10.306019      -280.4410
   4   2.0000     -10.290876      -280.0290
   5   2.0000     -10.290366      -280.0151
   6   2.0000     -10.273076      -279.5446
   7   2.0000     -10.273018      -279.5430
   8   2.0000     -10.268654      -279.4243
   9   2.0000     -10.259240      -279.1681
  10   2.0000     -10.259220      -279.1676
  11   2.0000     -10.259167      -279.1661
  12   2.0000     -10.259143      -279.1655
  13   2.0000      -1.139889       -31.0180
  14   2.0000      -1.034935       -28.1620
  15   2.0000      -0.935042       -25.4438
  16   2.0000      -0.899375       -24.4732
  17   2.0000      -0.886477       -24.1223
  18   2.0000      -0.838719       -22.8227
  19   2.0000      -0.804696       -21.8969
  20   2.0000      -0.804120       -21.8812
  21   2.0000      -0.784645       -21.3513
  22   2.0000      -0.764989       -20.8164
  23   2.0000      -0.695593       -18.9280
  24   2.0000      -0.679895       -18.5009
  25   2.0000      -0.643764       -17.5177
  26   2.0000      -0.618531       -16.8311
  27   2.0000      -0.581821       -15.8321
  28   2.0000      -0.557046       -15.1580
  29   2.0000      -0.555544       -15.1171
  30   2.0000      -0.549987       -14.9659
  31   2.0000      -0.535793       -14.5797
  32   2.0000      -0.533014       -14.5041
  33   2.0000      -0.519414       -14.1340
  34   2.0000      -0.509078       -13.8527
  35   2.0000      -0.508371       -13.8335
  36   2.0000      -0.506261       -13.7761
  37   2.0000      -0.492945       -13.4137
  38   2.0000      -0.487208       -13.2576
  39   2.0000      -0.486411       -13.2359
  40   2.0000      -0.472306       -12.8521
  41   2.0000      -0.466581       -12.6963
  42   2.0000      -0.459162       -12.4944
  43   2.0000      -0.452681       -12.3181
  44   2.0000      -0.440447       -11.9852
  45   2.0000      -0.439408       -11.9569
  46   2.0000      -0.430028       -11.7017
  47   2.0000      -0.360793        -9.8177
  48   2.0000      -0.315270        -8.5789
  49   2.0000      -0.301669        -8.2088
  50   0.0000       0.127646         3.4734
  51   0.0000       0.137749         3.7483
  52   0.0000       0.138747         3.7755
  53   0.0000       0.151096         4.1115
  54   0.0000       0.168613         4.5882

MULLIKEN ATOMIC CHARGES
-----------------------
   0 N :   -0.224230
   1 C :   -0.200619
   2 N :   -0.224244
   3 C :   -0.121465
   4 C :   -0.121412
   5 C :    0.000859
   6 C :    0.000904
   7 C :   -0.001910
   8 H :    0.034335
   9 C :   -0.002023
  10 H :    0.034317
  11 C :   -0.001647
  12 C :   -0.002340
  13 C :    0.069697
  14 C :    0.069815
  15 H :    0.033798
  16 H :    0.024613
  17 H :    0.039112
  18 H :    0.039284
  19 H :    0.024595
  20 H :    0.033693
  21 H :    0.039168
  22 H :    0.024610
  23 H :    0.033731
  24 H :    0.024611
  25 H :    0.039230
  26 H :    0.033773
  27 H :    0.036541
  28 H :    0.056794
  29 H :    0.056506
  30 H :    0.056874
  31 H :    0.036515
  32 H :    0.056512
Sum of atomic charges:   -0.0000000

LOEWDIN ATOMIC CHARGES
----------------------
   0 N :    0.028957
   1 C :   -0.311050
   2 N :    0.028937
   3 C :   -0.049328
   4 C :   -0.049306
   5 C :    0.030844
   6 C :    0.030838
   7 C :   -0.059621
   8 H :    0.030993
   9 C :   -0.059555
  10 H :    0.030989
  11 C :   -0.059610
  12 C :   -0.059572
  13 C :   -0.060953
  14 C :   -0.060933
  15 H :    0.028652
  16 H :    0.023034
  17 H :    0.032362
  18 H :    0.032397
  19 H :    0.023164
  20 H :    0.028590
  21 H :    0.032385
  22 H :    0.023030
  23 H :    0.028610
  24 H :    0.023171
  25 H :    0.032385
  26 H :    0.028630
  27 H :    0.043166
  28 H :    0.041432
  29 H :    0.041375
  30 H :    0.041474
  31 H :    0.043177
  32 H :    0.041337

  Mayer bond orders larger than 0.100000
B(  0-N ,  1-C ) :   1.2526 B(  0-N ,  4-C ) :   1.1275 B(  0-N ,  5-C ) :   0.8994
B(  1-C ,  2-N ) :   1.2526 B(  2-N ,  3-C ) :   1.1275 B(  2-N ,  6-C ) :   0.8994
B(  3-C ,  4-C ) :   1.6507 B(  3-C , 13-C ) :   1.0915 B(  4-C , 14-C ) :   1.0915
B(  5-C ,  7-C ) :   1.0731 B(  5-C ,  8-H ) :   0.9391 B(  5-C ,  9-C ) :   1.0732
B(  6-C , 10-H ) :   0.9390 B(  6-C , 11-C ) :   1.0733 B(  6-C , 12-C ) :   1.0729
B(  7-C , 18-H ) :   0.9712 B(  7-C , 19-H ) :   0.9637 B(  7-C , 20-H ) :   0.9685
B(  9-C , 15-H ) :   0.9686 B(  9-C , 16-H ) :   0.9636 B(  9-C , 17-H ) :   0.9710
B( 11-C , 24-H ) :   0.9636 B( 11-C , 25-H ) :   0.9712 B( 11-C , 26-H ) :   0.9685
B( 12-C , 21-H ) :   0.9710 B( 12-C , 22-H ) :   0.9636 B( 12-C , 23-H ) :   0.9686
B( 13-C , 30-H ) :   0.9489 B( 13-C , 31-H ) :   0.9438 B( 13-C , 32-H ) :   0.9488
B( 14-C , 27-H ) :   0.9438 B( 14-C , 28-H ) :   0.9488 B( 14-C , 29-H ) :   0.9489

Dispersion correction           -0.005729025
FINAL SINGLE POINT ENERGY      -540.197677263568

DIPOLE MOMENT
-------------
                                X             Y             Z
Electronic contribution:      0.00041       2.61158       0.01937
Nuclear contribution   :     -0.00146      -0.93436      -0.04737
                        -----------------------------------------
Total Dipole Moment    :     -0.00105       1.67722      -0.02800
                        -----------------------------------------
Magnitude (a.u.)       :      1.67745
Magnitude (Debye)      :      4.26375

Dispersion correction in the Hessian             ... Starting D4

VIBRATIONAL FREQUENCIES
-----------------------

Scaling factor for frequencies =  1.000000000  (already applied!)

   0:         0.00 cm**-1
   1:         0.00 cm**-1
   2:         0.00 cm**-1
   3:         0.00 cm**-1
   4:         0.00 cm**-1
   5:         0.00 cm**-1
   6:        32.04 cm**-1
   7:        43.11 cm**-1
   8:        88.29 cm**-1
   9:       113.99 cm**-1
  10:       159.17 cm**-1
  11:       200.53 cm**-1
  12:       214.56 cm**-1
  13:       223.13 cm**-1
  14:       234.08 cm**-1
  15:       255.85 cm**-1
  16:       259.11 cm**-1
  17:       277.51 cm**-1
  18:       282.70 cm**-1
  19:       283.87 cm**-1
  20:       288.62 cm**-1
  21:       324.30 cm**-1
  22:       325.18 cm**-1
  23:       404.61 cm**-1
  24:       423.19 cm**-1
  25:       480.00 cm**-1
  26:       495.13 cm**-1
  27:       552.01 cm**-1
  28:       617.22 cm**-1
  29:       637.52 cm**-1
  30:       686.41 cm**-1
  31:       698.44 cm**-1
  32:       747.88 cm**-1
  33:       812.01 cm**-1
  34:       914.65 cm**-1
  35:       931.73 cm**-1
  36:       932.86 cm**-1
  37:       934.06 cm**-1
  38:       962.21 cm**-1
  39:       962.92 cm**-1
  40:       969.99 cm**-1
  41:      1045.98 cm**-1
  42:      1067.74 cm**-1
  43:      1071.19 cm**-1
  44:      1093.74 cm**-1
  45:      1143.68 cm**-1
  46:      1148.71 cm**-1
  47:      1173.76 cm**-1
  48:      1173.96 cm**-1
  49:      1188.95 cm**-1
  50:      1219.38 cm**-1
  51:      1228.44 cm**-1
  52:      1349.21 cm**-1
  53:      1350.07 cm**-1
  54:      1350.12 cm**-1
  55:      1366.49 cm**-1
  56:      1393.45 cm**-1
  57:      1394.34 cm**-1
  58:      1400.40 cm**-1
  59:      1400.66 cm**-1
  60:      1400.90 cm**-1
  61:      1414.72 cm**-1
  62:      1435.89 cm**-1
  63:      1436.56 cm**-1
  64:      1442.76 cm**-1
  65:      1444.87 cm**-1
  66:      1446.36 cm**-1
  67:      1446.74 cm**-1
  68:      1453.10 cm**-1
  69:      1453.99 cm**-1
  70:      1456.02 cm**-1
  71:      1456.13 cm**-1
  72:      1461.94 cm**-1
  73:      1465.91 cm**-1
  74:      1470.00 cm**-1
  75:      1474.80 cm**-1
  76:      1488.48 cm**-1
  77:      1495.22 cm**-1
  78:      1753.80 cm**-1
  79:      3062.33 cm**-1
  80:      3064.30 cm**-1
  81:      3064.97 cm**-1
  82:      3065.00 cm**-1
  83:      3067.80 cm**-1
  84:      3067.88 cm**-1
  85:      3132.58 cm**-1
  86:      3132.78 cm**-1
  87:      3148.89 cm**-1
  88:      3149.17 cm**-1
  89:      3168.98 cm**-1
  90:      3169.05 cm**-1
  91:      3170.29 cm**-1
  92:      3170.33 cm**-1
  93:      3173.38 cm**-1
  94:      3173.41 cm**-1
  95:      3177.32 cm**-1
  96:      3177.62 cm**-1
  97:      3183.42 cm**-1
  98:      3187.26 cm**-1

IR SPECTRUM
-----------

 Mode   freq       eps      Int      T**2         TX        TY        TZ
       cm**-1   L/(mol*cm) km/mol    a.u.
----------------------------------------------------------------------------
  6:     32.04   0.000752    3.80  0.007322  ( 0.003445  0.001738  0.085481)
  7:     43.11   0.000000    0.00  0.000003  (-0.000479  0.000507  0.001493)
  8:     88.29   0.001085    5.48  0.003836  (-0.002120 -0.000969 -0.061888)
  9:    113.99   0.000000    0.00  0.000001  (-0.000724 -0.000275 -0.000310)
 10:    159.17   0.000377    1.91  0.000740  (-0.000023  0.027197 -0.000293)
 11:    200.53   0.000070    0.35  0.000109  (-0.006170  0.000132  0.008424)
 12:    214.56   0.000006    0.03  0.000008  (-0.001753 -0.000174 -0.002300)
 13:    223.13   0.000016    0.08  0.000022  (-0.003946 -0.000645 -0.002414)
 14:    234.08   0.000891    4.50  0.001187  (-0.034456 -0.000017  0.000329)
 15:    255.85   0.000004    0.02  0.000004  ( 0.001364  0.000040  0.001622)
 16:    259.11   0.000000    0.00  0.000000  (-0.000482 -0.000208 -0.000229)
 17:    277.51   0.000111    0.56  0.000124  (-0.000610 -0.001348  0.011050)
 18:    282.70   0.000146    0.74  0.000162  (-0.012473  0.000108  0.002436)
 19:    283.87   0.000093    0.47  0.000103  (-0.000389  0.009954  0.001809)
 20:    288.62   0.000023    0.12  0.000025  (-0.000531 -0.004970 -0.000041)
 21:    324.30   0.000200    1.01  0.000193  (-0.001541 -0.013796 -0.000450)
 22:    325.18   0.000518    2.62  0.000497  ( 0.022253 -0.000925  0.001029)
 23:    404.61   0.004203   21.24  0.003242  ( 0.002007  0.000766  0.056894)
 24:    423.19   0.000162    0.82  0.000120  (-0.010412  0.000129  0.003347)
 25:    480.00   0.000098    0.50  0.000064  (-0.000085 -0.007993  0.000039)
 26:    495.13   0.000000    0.00  0.000000  ( 0.000054 -0.000272  0.000086)
 27:    552.01   0.000610    3.08  0.000345  ( 0.018559 -0.000006 -0.000492)
 28:    617.22   0.001183    5.98  0.000598  (-0.000049  0.024453 -0.000336)
 29:    637.52   0.000057    0.29  0.000028  ( 0.005274  0.000102 -0.000198)
 30:    686.41   0.000035    0.18  0.000016  (-0.000100  0.000141  0.003975)
 31:    698.44   0.000000    0.00  0.000000  (-0.000434 -0.000130 -0.000023)
 32:    747.88   0.001594    8.06  0.000665  ( 0.000010 -0.025789  0.000502)
 33:    812.01   0.000582    2.94  0.000224  (-0.014939 -0.000014  0.000735)
 34:    914.65   0.000096    0.49  0.000033  ( 0.000090  0.005727  0.000169)
 35:    931.73   0.001438    7.27  0.000482  (-0.018823  0.000093 -0.011280)
 36:    932.86   0.000121    0.61  0.000040  ( 0.002890 -0.000349 -0.005649)
 37:    934.06   0.001177    5.95  0.000393  (-0.013145 -0.000167  0.014842)
 38:    962.21   0.000003    0.02  0.000001  (-0.000014  0.000174 -0.000986)
 39:    962.92   0.000142    0.72  0.000046  ( 0.000191 -0.000103 -0.006787)
 40:    969.99   0.000599    3.03  0.000193  ( 0.000079 -0.013875  0.000383)
 41:   1045.98   0.000951    4.81  0.000284  ( 0.000939  0.000803  0.016799)
 42:   1067.74   0.000021    0.11  0.000006  ( 0.002453  0.000002  0.000260)
 43:   1071.19   0.002244   11.34  0.000654  (-0.025558 -0.000013  0.000820)
 44:   1093.74   0.001367    6.91  0.000390  ( 0.000060 -0.019745  0.000431)
 45:   1143.68   0.018013   91.03  0.004915  ( 0.070047  0.000204 -0.002872)
 46:   1148.71   0.001688    8.53  0.000459  ( 0.000770 -0.021396  0.000470)
 47:   1173.76   0.000269    1.36  0.000072  ( 0.001024  0.000317  0.008388)
 48:   1173.96   0.003138   15.86  0.000834  (-0.002244 -0.000323 -0.028794)
 49:   1188.95   0.000061    0.31  0.000016  ( 0.003973  0.000026 -0.000485)
 50:   1219.38   0.000271    1.37  0.000069  (-0.000282  0.008325 -0.000222)
 51:   1228.44   0.002518   12.72  0.000640  ( 0.025273  0.000055 -0.000963)
 52:   1349.21   0.001424    7.20  0.000329  ( 0.000010 -0.018144  0.000362)
 53:   1350.07   0.000009    0.04  0.000002  (-0.000923 -0.001082 -0.000146)
 54:   1350.12   0.000084    0.42  0.000019  (-0.000430 -0.004379  0.000082)
 55:   1366.49   0.004323   21.85  0.000987  ( 0.031408 -0.000070 -0.000869)
 56:   1393.45   0.000187    0.95  0.000042  (-0.005189 -0.000918  0.003761)
 57:   1394.34   0.001321    6.68  0.000296  (-0.000068 -0.017193 -0.000230)
 58:   1400.40   0.000285    1.44  0.000064  ( 0.000279 -0.007951  0.000534)
 59:   1400.66   0.008143   41.15  0.001814  ( 0.002307 -0.000641  0.042525)
 60:   1400.90   0.001084    5.48  0.000242  ( 0.000693 -0.015047 -0.003829)
 61:   1414.72   0.025425  128.49  0.005608  (-0.074847 -0.000277  0.002462)
 62:   1435.89   0.012062   60.96  0.002621  (-0.040941 -0.029791  0.007600)
 63:   1436.56   0.012295   62.14  0.002671  (-0.031546  0.040932  0.000617)
 64:   1442.76   0.005963   30.13  0.001290  ( 0.009743  0.004308  0.034296)
 65:   1444.87   0.000183    0.92  0.000040  (-0.004350  0.002026  0.004060)
 66:   1446.36   0.000022    0.11  0.000005  ( 0.001092  0.000531  0.001820)
 67:   1446.74   0.000465    2.35  0.000100  (-0.002279 -0.009703  0.000925)
 68:   1453.10   0.000536    2.71  0.000115  (-0.010259  0.002838  0.001308)
 69:   1453.99   0.007183   36.30  0.001542  (-0.000766 -0.039256  0.000152)
 70:   1456.02   0.000183    0.92  0.000039  ( 0.000276 -0.005889 -0.002102)
 71:   1456.13   0.000103    0.52  0.000022  (-0.000627 -0.002499  0.003929)
 72:   1461.94   0.000734    3.71  0.000157  (-0.000684  0.012437  0.001221)
 73:   1465.91   0.000057    0.29  0.000012  (-0.003391  0.000041  0.000780)
 74:   1470.00   0.000391    1.98  0.000083  ( 0.000061 -0.009107 -0.000233)
 75:   1474.80   0.008473   42.82  0.001793  (-0.042306 -0.000245  0.001742)
 76:   1488.48   0.000773    3.90  0.000162  ( 0.012705  0.000116 -0.000737)
 77:   1495.22   0.003162   15.98  0.000660  (-0.000050  0.025690 -0.000115)
 78:   1753.80   0.000490    2.48  0.000087  (-0.000022  0.009335 -0.000206)
 79:   3062.33   0.010155   51.32  0.001035  ( 0.032161  0.000077 -0.000681)
 80:   3064.30   0.003767   19.04  0.000384  ( 0.000113 -0.019550  0.001176)
 81:   3064.97   0.008431   42.61  0.000858  ( 0.001536  0.002384  0.029162)
 82:   3065.00   0.003589   18.14  0.000365  (-0.000147 -0.000593 -0.019106)
 83:   3067.80   0.001547    7.82  0.000157  (-0.011631  0.004651  0.000681)
 84:   3067.88   0.003166   16.00  0.000322  (-0.002931 -0.017332  0.003608)
 85:   3132.58   0.002803   14.17  0.000279  (-0.016643  0.001375  0.000595)
 86:   3132.78   0.001976    9.98  0.000197  (-0.001641 -0.013927 -0.000390)
 87:   3148.89   0.004594   23.22  0.000455  (-0.000578 -0.000353 -0.021327)
 88:   3149.17   0.000701    3.54  0.000069  ( 0.000075 -0.000024  0.008336)
 89:   3168.98   0.004494   22.71  0.000443  (-0.001291 -0.005361  0.020301)
 90:   3169.05   0.002986   15.09  0.000294  (-0.000394  0.000607 -0.017132)
 91:   3170.29   0.005787   29.24  0.000570  (-0.015785  0.017900  0.000153)
 92:   3170.33   0.008716   44.05  0.000858  (-0.010008 -0.027330 -0.003295)
 93:   3173.38   0.000238    1.20  0.000023  ( 0.003020  0.000754  0.003697)
 94:   3173.41   0.000190    0.96  0.000019  ( 0.004015 -0.000532 -0.001504)
 95:   3177.32   0.017949   90.71  0.001763  (-0.041950 -0.001091  0.001383)
 96:   3177.62   0.003876   19.59  0.000381  (-0.002272  0.019351  0.001014)
 97:   3183.42   0.003603   18.21  0.000353  ( 0.018779 -0.000376 -0.000602)
 98:   3187.26   0.002358   11.91  0.000231  ( 0.000439  0.015184 -0.000324)

--------------------------
THERMOCHEMISTRY AT 298.15K
--------------------------

Temperature         ... 298.15 K
Pressure            ... 1.00 atm
Total Mass          ... 180.29 AMU

Throughout the following assumptions are being made:
  (1) The electronic state is orbitally nondegenerate
  (2) There are no thermally accessible electronically excited states
  (3) Hindered rotations indicated by low frequency modes are not
      treated as such but are treated as vibrations and this may
      cause some error
  (4) All equations used are the standard statistical mechanics
      equations for an ideal gas
  (5) All vibrations are strictly harmonic

freq.      32.04  E(vib)   ...       0.55
freq.      43.11  E(vib)   ...       0.53
freq.      88.29  E(vib)   ...       0.48
freq.     113.99  E(vib)   ...       0.44
freq.     159.17  E(vib)   ...       0.39
freq.     200.53  E(vib)   ...       0.35
freq.     214.56  E(vib)   ...       0.34
freq.     223.13  E(vib)   ...       0.33
freq.     234.08  E(vib)   ...       0.32
freq.     255.85  E(vib)   ...       0.30
freq.     259.11  E(vib)   ...       0.30
freq.     277.51  E(vib)   ...       0.28
freq.     282.70  E(vib)   ...       0.28
freq.     283.87  E(vib)   ...       0.28
freq.     288.62  E(vib)   ...       0.27
freq.     324.30  E(vib)   ...       0.25
freq.     325.18  E(vib)   ...       0.24
freq.     404.61  E(vib)   ...       0.19
freq.     423.19  E(vib)   ...       0.18
freq.     480.00  E(vib)   ...       0.15
freq.     495.13  E(vib)   ...       0.14
freq.     552.01  E(vib)   ...       0.12
freq.     617.22  E(vib)   ...       0.09
freq.     637.52  E(vib)   ...       0.09
freq.     686.41  E(vib)   ...       0.07
freq.     698.44  E(vib)   ...       0.07
freq.     747.88  E(vib)   ...       0.06
freq.     812.01  E(vib)   ...       0.05
freq.     914.65  E(vib)   ...       0.03
freq.     931.73  E(vib)   ...       0.03
freq.     932.86  E(vib)   ...       0.03
freq.     934.06  E(vib)   ...       0.03
freq.     962.21  E(vib)   ...       0.03
freq.     962.92  E(vib)   ...       0.03
freq.     969.99  E(vib)   ...       0.03
freq.    1045.98  E(vib)   ...       0.02
freq.    1067.74  E(vib)   ...       0.02
freq.    1071.19  E(vib)   ...       0.02
freq.    1093.74  E(vib)   ...       0.02
freq.    1143.68  E(vib)   ...       0.01
freq.    1148.71  E(vib)   ...       0.01
freq.    1173.76  E(vib)   ...       0.01
freq.    1173.96  E(vib)   ...       0.01
freq.    1188.95  E(vib)   ...       0.01
freq.    1219.38  E(vib)   ...       0.01
freq.    1228.44  E(vib)   ...       0.01
freq.    1349.21  E(vib)   ...       0.01
freq.    1350.07  E(vib)   ...       0.01
freq.    1350.12  E(vib)   ...       0.01
freq.    1366.49  E(vib)   ...       0.01
freq.    1393.45  E(vib)   ...       0.00
freq.    1394.34  E(vib)   ...       0.00
freq.    1400.40  E(vib)   ...       0.00
freq.    1400.66  E(vib)   ...       0.00
freq.    1400.90  E(vib)   ...       0.00
freq.    1414.72  E(vib)   ...       0.00
freq.    1435.89  E(vib)   ...       0.00
freq.    1436.56  E(vib)   ...       0.00
freq.    1442.76  E(vib)   ...       0.00
freq.    1444.87  E(vib)   ...       0.00
freq.    1446.36  E(vib)   ...       0.00
freq.    1446.74  E(vib)   ...       0.00
freq.    1453.10  E(vib)   ...       0.00
freq.    1453.99  E(vib)   ...       0.00
freq.    1456.02  E(vib)   ...       0.00
freq.    1456.13  E(vib)   ...       0.00
freq.    1461.94  E(vib)   ...       0.00
freq.    1465.91  E(vib)   ...       0.00
freq.    1470.00  E(vib)   ...       0.00
freq.    1474.80  E(vib)   ...       0.00
freq.    1488.48  E(vib)   ...       0.00
freq.    1495.22  E(vib)   ...       0.00
freq.    1753.80  E(vib)   ...       0.00
freq.    3062.33  E(vib)   ...       0.00
freq.    3064.30  E(vib)   ...       0.00
freq.    3064.97  E(vib)   ...       0.00
freq.    3065.00  E(vib)   ...       0.00
freq.    3067.80  E(vib)   ...       0.00
freq.    3067.88  E(vib)   ...       0.00
freq.    3132.58  E(vib)   ...       0.00
freq.    3132.78  E(vib)   ...       0.00
freq.    3148.89  E(vib)   ...       0.00
freq.    3149.17  E(vib)   ...       0.00
freq.    3168.98  E(vib)   ...       0.00
freq.    3169.05  E(vib)   ...       0.00
freq.    3170.29  E(vib)   ...       0.00
freq.    3170.33  E(vib)   ...       0.00
freq.    3173.38  E(vib)   ...       0.00
freq.    3173.41  E(vib)   ...       0.00
freq.    3177.32  E(vib)   ...       0.00
freq.    3177.62  E(vib)   ...       0.00
freq.    3183.42  E(vib)   ...       0.00
freq.    3187.26  E(vib)   ...       0.00

------------
INNER ENERGY
------------

The inner energy is: U= E(el) + E(ZPE) + E(vib) + E(rot) + E(trans)
    E(el)   - is the total energy from the electronic structure calculation
              = E(kin-el) + E(nuc-el) + E(el-el) + E(nuc-nuc)
    E(ZPE)  - the the zero temperature vibrational energy from the frequency calculation
    E(vib)  - the the finite temperature correction to E(ZPE) due to population
              of excited vibrational states
    E(rot)  - is the rotational thermal energy
    E(trans)- is the translational thermal energy

Summary of contributions to the inner energy U:
Electronic energy                ...   -540.19767726 Eh
Zero point energy                ...      0.29828987 Eh     187.18 kcal/mol
Thermal vibrational correction   ...      0.01212393 Eh       7.61 kcal/mol
Thermal rotational correction    ...      0.00141627 Eh       0.89 kcal/mol
Thermal translational correction ...      0.00141627 Eh       0.89 kcal/mol
-----------------------------------------------------------------------
Total thermal energy                   -539.88443092 Eh

Summary of corrections to the electronic energy:
(perhaps to be used in another calculation)
Total thermal correction                  0.01495647 Eh       9.39 kcal/mol
Non-thermal (ZPE) correction              0.29828987 Eh     187.18 kcal/mol
-----------------------------------------------------------------------
Total correction                          0.31324634 Eh     196.56 kcal/mol

--------
ENTHALPY
--------

The enthalpy is H = U + kB*T
                kB is Boltzmann's constant
Total free energy                 ...   -539.88443092 Eh
Thermal Enthalpy correction       ...      0.00094421 Eh       0.59 kcal/mol
-----------------------------------------------------------------------
Total Enthalpy                    ...   -539.88348671 Eh

Note: Only C1 symmetry has been detected, increase convergence thresholds
      if your molecule has a higher symmetry. Symmetry factor of 1.0 is
      used for the rotational entropy correction.

Note: Rotational entropy computed according to Herzberg
Infrared and Raman Spectra, Chapter V,1, Van Nostrand Reinhold, 1945

Rotational constants in cm-1:     0.035695     0.019185     0.014982

                             ****ORCA TERMINATED NORMALLY****
TOTAL RUN TIME: 0 days 2 hours 33 minutes 4 seconds 202 msec
