                         Program Version 5.0.4 -  RELEASE  -
|  1> # ORCA 5.0.4 - /users/bwb16179/postgrad/2024_03/DFT_Crest_Conformers/Opt/deprot/6_deprot_aq_2.inp # write input file
|  2> # Basic Mode
|  3> #
|  4> ! Opt Freq wB97X Def2-SVP D4 SlowConv TightSCF Defgrid2 Def2/J RIJCOSX CPCM(Water)
|  5>
|  6>
|  7>
|  8> %maxcore 4500
|  9>
| 10> %geom
| 11> Maxiter 150
| 12> END
| 13>
| 14> * xyzfile 0 1 6_deprot_aq_2.xyz
| 15>
| 16>                          ****END OF INPUT****
 Total Charge           Charge          ....    0
 Multiplicity           Mult            ....    1
 Number of Electrons    NEL             ....  100
Dispersion correction           -0.005800779
FINAL SINGLE POINT ENERGY      -540.192775688833
Dispersion correction            ... Starting D4
Dispersion correction           -0.005743452
FINAL SINGLE POINT ENERGY      -540.197245959621
Dispersion correction            ... Starting D4
Dispersion correction           -0.005738942
FINAL SINGLE POINT ENERGY      -540.197578021285
Dispersion correction            ... Starting D4
FINAL SINGLE POINT ENERGY      -540.197669225354
FINAL SINGLE POINT ENERGY      -540.197684255438
Dispersion correction           -0.005736609
FINAL SINGLE POINT ENERGY      -540.197689414231
Dispersion correction            ... Starting D4
Dispersion correction           -0.005736484
FINAL SINGLE POINT ENERGY      -540.197692550154
Dispersion correction            ... Starting D4
                    ***********************HURRAY********************

CARTESIAN COORDINATES (ANGSTROEM)
---------------------------------
  N     -1.056249   -0.074141    0.145865
  C      0.008991   -0.912150    0.173291
  N      1.065491   -0.070560    0.056915
  C      0.677365    1.264721   -0.063690
  C     -0.683435    1.262459   -0.008280
  C     -2.449228   -0.537601    0.171576
  C      2.457111   -0.534275   -0.007902
  C     -2.864843   -1.047379   -1.204972
  H     -3.061102    0.344278    0.415787
  C     -2.670966   -1.575061    1.264407
  H      3.083401    0.366833    0.072889
  C      2.737141   -1.195966   -1.353417
  C      2.793234   -1.441419    1.168734
  C      1.637228    2.399656   -0.204784
  C     -1.655387    2.394094   -0.073329
  H     -2.094415   -2.488986    1.061093
  H     -3.738279   -1.839217    1.316021
  H     -2.360565   -1.183313    2.245056
  H     -2.729118   -0.268133   -1.971582
  H     -3.923182   -1.350492   -1.203595
  H     -2.252320   -1.918983   -1.486174
  H      3.859976   -1.711547    1.142477
  H      2.198455   -2.365997    1.132943
  H      2.587452   -0.934870    2.124248
  H      2.529898   -0.502031   -2.183021
  H      2.100034   -2.085648   -1.478819
  H      3.790930   -1.507702   -1.418390
  H     -2.247763    2.477789    0.852151
  H     -2.362240    2.280159   -0.911095
  H     -1.119167    3.342714   -0.212463
  H      1.088406    3.346921   -0.296087
  H      2.272391    2.290792   -1.098599
  H      2.303405    2.482143    0.669185

 Multiplicity           Mult            ....    1
 Number of Electrons    NEL             ....  100
 Basis Dimension        Dim             ....  282

ORBITAL ENERGIES
----------------

  NO   OCC          E(Eh)            E(eV)
   0   2.0000     -14.438481      -392.8910
   1   2.0000     -14.438233      -392.8843
   2   2.0000     -10.306298      -280.4486
   3   2.0000     -10.306106      -280.4434
   4   2.0000     -10.290794      -280.0267
   5   2.0000     -10.290219      -280.0111
   6   2.0000     -10.273060      -279.5442
   7   2.0000     -10.272968      -279.5417
   8   2.0000     -10.268472      -279.4193
   9   2.0000     -10.260080      -279.1910
  10   2.0000     -10.259661      -279.1796
  11   2.0000     -10.258832      -279.1570
  12   2.0000     -10.258770      -279.1553
  13   2.0000      -1.139821       -31.0161
  14   2.0000      -1.035069       -28.1657
  15   2.0000      -0.934853       -25.4387
  16   2.0000      -0.899482       -24.4762
  17   2.0000      -0.886354       -24.1189
  18   2.0000      -0.838867       -22.8267
  19   2.0000      -0.804872       -21.9017
  20   2.0000      -0.804111       -21.8810
  21   2.0000      -0.784450       -21.3460
  22   2.0000      -0.764697       -20.8085
  23   2.0000      -0.695668       -18.9301
  24   2.0000      -0.679106       -18.4794
  25   2.0000      -0.643739       -17.5170
  26   2.0000      -0.619324       -16.8526
  27   2.0000      -0.581962       -15.8360
  28   2.0000      -0.558045       -15.1852
  29   2.0000      -0.556751       -15.1500
  30   2.0000      -0.550234       -14.9726
  31   2.0000      -0.534835       -14.5536
  32   2.0000      -0.532692       -14.4953
  33   2.0000      -0.517950       -14.0941
  34   2.0000      -0.511461       -13.9176
  35   2.0000      -0.506313       -13.7775
  36   2.0000      -0.504483       -13.7277
  37   2.0000      -0.492793       -13.4096
  38   2.0000      -0.488575       -13.2948
  39   2.0000      -0.485142       -13.2014
  40   2.0000      -0.473001       -12.8710
  41   2.0000      -0.466568       -12.6960
  42   2.0000      -0.459220       -12.4960
  43   2.0000      -0.452483       -12.3127
  44   2.0000      -0.440979       -11.9997
  45   2.0000      -0.438758       -11.9392
  46   2.0000      -0.430957       -11.7269
  47   2.0000      -0.360396        -9.8069
  48   2.0000      -0.314678        -8.5628
  49   2.0000      -0.301829        -8.2132
  50   0.0000       0.127922         3.4809
  51   0.0000       0.137171         3.7326
  52   0.0000       0.138918         3.7802
  53   0.0000       0.151282         4.1166
  54   0.0000       0.168561         4.5868

MULLIKEN ATOMIC CHARGES
-----------------------
   0 N :   -0.223374
   1 C :   -0.203187
   2 N :   -0.224127
   3 C :   -0.119964
   4 C :   -0.121012
   5 C :   -0.004274
   6 C :   -0.001126
   7 C :    0.000661
   8 H :    0.035140
   9 C :   -0.002162
  10 H :    0.034794
  11 C :    0.000580
  12 C :   -0.003760
  13 C :    0.070066
  14 C :    0.071088
  15 H :    0.025281
  16 H :    0.038851
  17 H :    0.033332
  18 H :    0.034471
  19 H :    0.040374
  20 H :    0.025745
  21 H :    0.038773
  22 H :    0.024979
  23 H :    0.033594
  24 H :    0.033950
  25 H :    0.024978
  26 H :    0.039602
  27 H :    0.058799
  28 H :    0.051696
  29 H :    0.036961
  30 H :    0.036892
  31 H :    0.053881
  32 H :    0.058495
Sum of atomic charges:   -0.0000000

LOEWDIN ATOMIC CHARGES
----------------------
   0 N :    0.028303
   1 C :   -0.311086
   2 N :    0.028109
   3 C :   -0.048533
   4 C :   -0.049286
   5 C :    0.030289
   6 C :    0.030595
   7 C :   -0.060124
   8 H :    0.030540
   9 C :   -0.058535
  10 H :    0.030796
  11 C :   -0.059910
  12 C :   -0.059150
  13 C :   -0.060793
  14 C :   -0.060539
  15 H :    0.022439
  16 H :    0.032441
  17 H :    0.028491
  18 H :    0.028322
  19 H :    0.032836
  20 H :    0.024964
  21 H :    0.032363
  22 H :    0.022521
  23 H :    0.028599
  24 H :    0.028413
  25 H :    0.024084
  26 H :    0.032488
  27 H :    0.041789
  28 H :    0.040457
  29 H :    0.043194
  30 H :    0.043210
  31 H :    0.040905
  32 H :    0.041810

  Mayer bond orders larger than 0.100000
B(  0-N ,  1-C ) :   1.2520 B(  0-N ,  4-C ) :   1.1258 B(  0-N ,  5-C ) :   0.9044
B(  1-C ,  2-N ) :   1.2484 B(  2-N ,  3-C ) :   1.1272 B(  2-N ,  6-C ) :   0.9017
B(  3-C ,  4-C ) :   1.6520 B(  3-C , 13-C ) :   1.0911 B(  4-C , 14-C ) :   1.0906
B(  5-C ,  7-C ) :   1.0737 B(  5-C ,  8-H ) :   0.9388 B(  5-C ,  9-C ) :   1.0719
B(  6-C , 10-H ) :   0.9390 B(  6-C , 11-C ) :   1.0736 B(  6-C , 12-C ) :   1.0723
B(  7-C , 18-H ) :   0.9666 B(  7-C , 19-H ) :   0.9721 B(  7-C , 20-H ) :   0.9638
B(  9-C , 15-H ) :   0.9627 B(  9-C , 16-H ) :   0.9693 B(  9-C , 17-H ) :   0.9692
B( 11-C , 24-H ) :   0.9675 B( 11-C , 25-H ) :   0.9637 B( 11-C , 26-H ) :   0.9719
B( 12-C , 21-H ) :   0.9700 B( 12-C , 22-H ) :   0.9635 B( 12-C , 23-H ) :   0.9691
B( 13-C , 30-H ) :   0.9441 B( 13-C , 31-H ) :   0.9490 B( 13-C , 32-H ) :   0.9485
B( 14-C , 27-H ) :   0.9486 B( 14-C , 28-H ) :   0.9488 B( 14-C , 29-H ) :   0.9443

Dispersion correction           -0.005736123
FINAL SINGLE POINT ENERGY      -540.197696199839

DIPOLE MOMENT
-------------
                                X             Y             Z
Electronic contribution:      0.04532       2.56276       0.94379
Nuclear contribution   :     -0.05893      -0.90707      -1.14476
                        -----------------------------------------
Total Dipole Moment    :     -0.01360       1.65569      -0.20097
                        -----------------------------------------
Magnitude (a.u.)       :      1.66790
Magnitude (Debye)      :      4.23946

Dispersion correction in the Hessian             ... Starting D4

VIBRATIONAL FREQUENCIES
-----------------------

Scaling factor for frequencies =  1.000000000  (already applied!)

   0:         0.00 cm**-1
   1:         0.00 cm**-1
   2:         0.00 cm**-1
   3:         0.00 cm**-1
   4:         0.00 cm**-1
   5:         0.00 cm**-1
   6:       -37.19 cm**-1 ***imaginary mode***
   7:        49.00 cm**-1
   8:        87.32 cm**-1
   9:       109.69 cm**-1
  10:       153.68 cm**-1
  11:       158.69 cm**-1
  12:       195.29 cm**-1
  13:       213.13 cm**-1
  14:       230.70 cm**-1
  15:       239.20 cm**-1
  16:       240.77 cm**-1
  17:       262.53 cm**-1
  18:       273.84 cm**-1
  19:       281.71 cm**-1
  20:       292.33 cm**-1
  21:       321.27 cm**-1
  22:       325.19 cm**-1
  23:       401.65 cm**-1
  24:       416.68 cm**-1
  25:       475.47 cm**-1
  26:       494.04 cm**-1
  27:       550.29 cm**-1
  28:       615.73 cm**-1
  29:       636.69 cm**-1
  30:       683.96 cm**-1
  31:       698.27 cm**-1
  32:       746.81 cm**-1
  33:       812.02 cm**-1
  34:       912.86 cm**-1
  35:       924.29 cm**-1
  36:       930.67 cm**-1
  37:       934.14 cm**-1
  38:       960.52 cm**-1
  39:       963.31 cm**-1
  40:       966.50 cm**-1
  41:      1040.33 cm**-1
  42:      1063.35 cm**-1
  43:      1068.31 cm**-1
  44:      1091.76 cm**-1
  45:      1140.48 cm**-1
  46:      1146.70 cm**-1
  47:      1169.13 cm**-1
  48:      1171.94 cm**-1
  49:      1187.34 cm**-1
  50:      1218.23 cm**-1
  51:      1227.75 cm**-1
  52:      1344.61 cm**-1
  53:      1348.52 cm**-1
  54:      1350.44 cm**-1
  55:      1364.50 cm**-1
  56:      1390.10 cm**-1
  57:      1393.88 cm**-1
  58:      1397.13 cm**-1
  59:      1398.35 cm**-1
  60:      1400.73 cm**-1
  61:      1412.36 cm**-1
  62:      1433.65 cm**-1
  63:      1434.25 cm**-1
  64:      1439.56 cm**-1
  65:      1442.39 cm**-1
  66:      1444.98 cm**-1
  67:      1445.39 cm**-1
  68:      1450.25 cm**-1
  69:      1450.84 cm**-1
  70:      1451.95 cm**-1
  71:      1453.74 cm**-1
  72:      1458.35 cm**-1
  73:      1465.68 cm**-1
  74:      1469.08 cm**-1
  75:      1472.91 cm**-1
  76:      1486.30 cm**-1
  77:      1491.35 cm**-1
  78:      1755.04 cm**-1
  79:      3059.87 cm**-1
  80:      3061.77 cm**-1
  81:      3062.45 cm**-1
  82:      3064.01 cm**-1
  83:      3069.52 cm**-1
  84:      3071.56 cm**-1
  85:      3125.63 cm**-1
  86:      3130.23 cm**-1
  87:      3147.87 cm**-1
  88:      3148.52 cm**-1
  89:      3163.01 cm**-1
  90:      3165.80 cm**-1
  91:      3169.70 cm**-1
  92:      3169.77 cm**-1
  93:      3171.59 cm**-1
  94:      3172.10 cm**-1
  95:      3180.09 cm**-1
  96:      3183.51 cm**-1
  97:      3183.77 cm**-1
  98:      3186.75 cm**-1

IR SPECTRUM
-----------

 Mode   freq       eps      Int      T**2         TX        TY        TZ
       cm**-1   L/(mol*cm) km/mol    a.u.
----------------------------------------------------------------------------
  7:     49.00   0.000269    1.36  0.001715  (-0.009010 -0.004808 -0.040138)
  8:     87.32   0.001431    7.23  0.005115  (-0.003419 -0.007838 -0.071008)
  9:    109.69   0.000019    0.10  0.000055  (-0.007115 -0.001328 -0.001612)
 10:    153.68   0.000386    1.95  0.000783  (-0.000344 -0.027974  0.000516)
 11:    158.69   0.000029    0.14  0.000056  (-0.001661 -0.000150 -0.007311)
 12:    195.29   0.000025    0.12  0.000039  (-0.004519 -0.001814 -0.003930)
 13:    213.13   0.000033    0.17  0.000049  (-0.006918 -0.000071  0.001074)
 14:    230.70   0.000946    4.78  0.001280  (-0.035256 -0.000681  0.006033)
 15:    239.20   0.000068    0.35  0.000089  ( 0.009096  0.000555  0.002504)
 16:    240.77   0.000019    0.10  0.000025  ( 0.003999 -0.001818 -0.002397)
 17:    262.53   0.000069    0.35  0.000082  ( 0.008011 -0.004169  0.000679)
 18:    273.84   0.000074    0.38  0.000085  ( 0.000162  0.001483 -0.009081)
 19:    281.71   0.000108    0.55  0.000120  (-0.000712 -0.008827 -0.006421)
 20:    292.33   0.000051    0.26  0.000055  (-0.006917  0.000949 -0.002485)
 21:    321.27   0.000312    1.58  0.000303  ( 0.001638 -0.015925 -0.006817)
 22:    325.19   0.000470    2.38  0.000451  ( 0.021061  0.002403 -0.001455)
 23:    401.65   0.003898   19.70  0.003029  ( 0.001044  0.002674  0.054958)
 24:    416.68   0.000284    1.44  0.000213  (-0.009615  0.000168 -0.010972)
 25:    475.47   0.000115    0.58  0.000076  (-0.000354 -0.008684 -0.000426)
 26:    494.04   0.000002    0.01  0.000001  ( 0.000271  0.000865  0.000660)
 27:    550.29   0.000619    3.13  0.000351  ( 0.018717 -0.000208 -0.000974)
 28:    615.73   0.001067    5.39  0.000541  ( 0.000072 -0.023252  0.000582)
 29:    636.69   0.000065    0.33  0.000032  ( 0.005618  0.000238  0.000281)
 30:    683.96   0.000059    0.30  0.000027  (-0.001358 -0.001761 -0.004687)
 31:    698.27   0.000084    0.42  0.000037  (-0.006089 -0.000571 -0.000051)
 32:    746.81   0.001680    8.49  0.000702  ( 0.000094 -0.026223  0.003768)
 33:    812.02   0.000573    2.90  0.000220  (-0.014836 -0.000220  0.000059)
 34:    912.86   0.000081    0.41  0.000028  ( 0.001395 -0.004557 -0.002265)
 35:    924.29   0.000520    2.63  0.000175  ( 0.003176  0.002179 -0.012672)
 36:    930.67   0.001329    6.72  0.000446  ( 0.019937 -0.001192  0.006836)
 37:    934.14   0.000770    3.89  0.000257  (-0.010843 -0.002949  0.011450)
 38:    960.52   0.000080    0.40  0.000026  (-0.000687  0.000364  0.005026)
 39:    963.31   0.000112    0.56  0.000036  ( 0.001470  0.004186  0.004054)
 40:    966.50   0.000629    3.18  0.000203  (-0.001957  0.013635 -0.003665)
 41:   1040.33   0.000967    4.89  0.000290  ( 0.000280  0.004273  0.016486)
 42:   1063.35   0.000027    0.13  0.000008  (-0.002038  0.000416  0.001858)
 43:   1068.31   0.002371   11.98  0.000692  (-0.026306 -0.000038  0.000682)
 44:   1091.76   0.001255    6.34  0.000359  (-0.001541  0.018779 -0.001934)
 45:   1140.48   0.016733   84.56  0.004579  (-0.067605 -0.001263  0.002578)
 46:   1146.70   0.001917    9.69  0.000522  ( 0.004378 -0.022222  0.002960)
 47:   1169.13   0.001394    7.04  0.000372  (-0.003484 -0.000385 -0.018968)
 48:   1171.94   0.001957    9.89  0.000521  ( 0.004332 -0.001182 -0.022383)
 49:   1187.34   0.000173    0.87  0.000045  (-0.006291 -0.000199 -0.002424)
 50:   1218.23   0.000226    1.14  0.000058  ( 0.002816 -0.007031  0.000721)
 51:   1227.75   0.002385   12.06  0.000606  ( 0.024587  0.000862 -0.001025)
 52:   1344.61   0.000101    0.51  0.000023  ( 0.003715  0.002315 -0.002052)
 53:   1348.52   0.001021    5.16  0.000236  ( 0.001438  0.015174 -0.002002)
 54:   1350.44   0.000250    1.26  0.000058  ( 0.003850  0.006512  0.000698)
 55:   1364.50   0.004613   23.31  0.001055  (-0.032462  0.001125 -0.000012)
 56:   1390.10   0.000963    4.86  0.000216  (-0.006628 -0.011683 -0.005974)
 57:   1393.88   0.000733    3.70  0.000164  ( 0.006539 -0.011004 -0.000462)
 58:   1397.13   0.003521   17.79  0.000786  (-0.007186  0.012235  0.024190)
 59:   1398.35   0.002071   10.47  0.000462  (-0.001677  0.014712 -0.015588)
 60:   1400.73   0.004736   23.93  0.001055  (-0.007086  0.000726 -0.031692)
 61:   1412.36   0.025010  126.39  0.005526  ( 0.074230  0.002761 -0.002874)
 62:   1433.65   0.012200   61.65  0.002656  ( 0.047078  0.020507  0.004323)
 63:   1434.25   0.012924   65.31  0.002812  (-0.021375  0.048405 -0.003457)
 64:   1439.56   0.005790   29.26  0.001255  ( 0.008998 -0.000673 -0.034259)
 65:   1442.39   0.000198    1.00  0.000043  ( 0.001539 -0.003176  0.005505)
 66:   1444.98   0.000105    0.53  0.000023  (-0.001330 -0.000020 -0.004577)
 67:   1445.39   0.000763    3.86  0.000165  (-0.000931 -0.012711 -0.001537)
 68:   1450.25   0.000395    1.99  0.000085  (-0.003151  0.007806  0.003751)
 69:   1450.84   0.002256   11.40  0.000485  ( 0.011817  0.018583  0.000423)
 70:   1451.95   0.000799    4.04  0.000172  ( 0.000413 -0.012744 -0.003041)
 71:   1453.74   0.002932   14.82  0.000629  ( 0.009104 -0.023351  0.001153)
 72:   1458.35   0.000864    4.36  0.000185  ( 0.003397 -0.013160  0.000235)
 73:   1465.68   0.000140    0.71  0.000030  (-0.004613  0.002753 -0.000966)
 74:   1469.08   0.000742    3.75  0.000158  (-0.002116 -0.011632 -0.004230)
 75:   1472.91   0.009034   45.66  0.001914  ( 0.043688  0.001539 -0.001764)
 76:   1486.30   0.001053    5.32  0.000221  (-0.014538  0.003107  0.000078)
 77:   1491.35   0.003393   17.15  0.000710  ( 0.000831 -0.026528 -0.002350)
 78:   1755.04   0.000573    2.89  0.000102  (-0.000017 -0.009834  0.002258)
 79:   3059.87   0.004919   24.86  0.000502  (-0.010764 -0.003148 -0.019388)
 80:   3061.77   0.006966   35.20  0.000710  ( 0.015670 -0.004096 -0.021159)
 81:   3062.45   0.007043   35.59  0.000718  (-0.026208 -0.001931 -0.005209)
 82:   3064.01   0.004124   20.84  0.000420  (-0.001338  0.020450  0.000057)
 83:   3069.52   0.003431   17.34  0.000349  ( 0.008472 -0.010676  0.012770)
 84:   3071.56   0.003837   19.39  0.000390  (-0.007268 -0.011893  0.013984)
 85:   3125.63   0.002991   15.11  0.000299  ( 0.012689 -0.010141 -0.005893)
 86:   3130.23   0.002607   13.17  0.000260  ( 0.011878  0.010555  0.002716)
 87:   3147.87   0.003395   17.16  0.000337  (-0.001122 -0.000961 -0.018285)
 88:   3148.52   0.001728    8.73  0.000171  ( 0.000168  0.000885  0.013055)
 89:   3163.01   0.005540   28.00  0.000547  ( 0.003944 -0.021752  0.007607)
 90:   3165.80   0.005322   26.90  0.000525  (-0.000175  0.019439 -0.012113)
 91:   3169.70   0.002809   14.20  0.000277  (-0.013268  0.000699  0.010001)
 92:   3169.77   0.003020   15.26  0.000297  (-0.003064  0.011160  0.012781)
 93:   3171.59   0.007436   37.58  0.000732  ( 0.025868 -0.006372 -0.004680)
 94:   3172.10   0.007828   39.56  0.000770  (-0.024123 -0.009578 -0.009819)
 95:   3180.09   0.006709   33.91  0.000658  ( 0.021377  0.013156  0.005324)
 96:   3183.51   0.002076   10.49  0.000203  (-0.003646  0.010883  0.008469)
 97:   3183.77   0.006902   34.88  0.000677  (-0.023502  0.009579  0.005698)
 98:   3186.75   0.002401   12.13  0.000235  (-0.003217 -0.014798  0.002396)

--------------------------
THERMOCHEMISTRY AT 298.15K
--------------------------

Temperature         ... 298.15 K
Pressure            ... 1.00 atm
Total Mass          ... 180.29 AMU

Throughout the following assumptions are being made:
  (1) The electronic state is orbitally nondegenerate
  (2) There are no thermally accessible electronically excited states
  (3) Hindered rotations indicated by low frequency modes are not
      treated as such but are treated as vibrations and this may
      cause some error
  (4) All equations used are the standard statistical mechanics
      equations for an ideal gas
  (5) All vibrations are strictly harmonic

freq.      49.00  E(vib)   ...       0.53
freq.      87.32  E(vib)   ...       0.48
freq.     109.69  E(vib)   ...       0.45
freq.     153.68  E(vib)   ...       0.40
freq.     158.69  E(vib)   ...       0.39
freq.     195.29  E(vib)   ...       0.36
freq.     213.13  E(vib)   ...       0.34
freq.     230.70  E(vib)   ...       0.32
freq.     239.20  E(vib)   ...       0.31
freq.     240.77  E(vib)   ...       0.31
freq.     262.53  E(vib)   ...       0.29
freq.     273.84  E(vib)   ...       0.28
freq.     281.71  E(vib)   ...       0.28
freq.     292.33  E(vib)   ...       0.27
freq.     321.27  E(vib)   ...       0.25
freq.     325.19  E(vib)   ...       0.24
freq.     401.65  E(vib)   ...       0.19
freq.     416.68  E(vib)   ...       0.18
freq.     475.47  E(vib)   ...       0.15
freq.     494.04  E(vib)   ...       0.14
freq.     550.29  E(vib)   ...       0.12
freq.     615.73  E(vib)   ...       0.10
freq.     636.69  E(vib)   ...       0.09
freq.     683.96  E(vib)   ...       0.07
freq.     698.27  E(vib)   ...       0.07
freq.     746.81  E(vib)   ...       0.06
freq.     812.02  E(vib)   ...       0.05
freq.     912.86  E(vib)   ...       0.03
freq.     924.29  E(vib)   ...       0.03
freq.     930.67  E(vib)   ...       0.03
freq.     934.14  E(vib)   ...       0.03
freq.     960.52  E(vib)   ...       0.03
freq.     963.31  E(vib)   ...       0.03
freq.     966.50  E(vib)   ...       0.03
freq.    1040.33  E(vib)   ...       0.02
freq.    1063.35  E(vib)   ...       0.02
freq.    1068.31  E(vib)   ...       0.02
freq.    1091.76  E(vib)   ...       0.02
freq.    1140.48  E(vib)   ...       0.01
freq.    1146.70  E(vib)   ...       0.01
freq.    1169.13  E(vib)   ...       0.01
freq.    1171.94  E(vib)   ...       0.01
freq.    1187.34  E(vib)   ...       0.01
freq.    1218.23  E(vib)   ...       0.01
freq.    1227.75  E(vib)   ...       0.01
freq.    1344.61  E(vib)   ...       0.01
freq.    1348.52  E(vib)   ...       0.01
freq.    1350.44  E(vib)   ...       0.01
freq.    1364.50  E(vib)   ...       0.01
freq.    1390.10  E(vib)   ...       0.00
freq.    1393.88  E(vib)   ...       0.00
freq.    1397.13  E(vib)   ...       0.00
freq.    1398.35  E(vib)   ...       0.00
freq.    1400.73  E(vib)   ...       0.00
freq.    1412.36  E(vib)   ...       0.00
freq.    1433.65  E(vib)   ...       0.00
freq.    1434.25  E(vib)   ...       0.00
freq.    1439.56  E(vib)   ...       0.00
freq.    1442.39  E(vib)   ...       0.00
freq.    1444.98  E(vib)   ...       0.00
freq.    1445.39  E(vib)   ...       0.00
freq.    1450.25  E(vib)   ...       0.00
freq.    1450.84  E(vib)   ...       0.00
freq.    1451.95  E(vib)   ...       0.00
freq.    1453.74  E(vib)   ...       0.00
freq.    1458.35  E(vib)   ...       0.00
freq.    1465.68  E(vib)   ...       0.00
freq.    1469.08  E(vib)   ...       0.00
freq.    1472.91  E(vib)   ...       0.00
freq.    1486.30  E(vib)   ...       0.00
freq.    1491.35  E(vib)   ...       0.00
freq.    1755.04  E(vib)   ...       0.00
freq.    3059.87  E(vib)   ...       0.00
freq.    3061.77  E(vib)   ...       0.00
freq.    3062.45  E(vib)   ...       0.00
freq.    3064.01  E(vib)   ...       0.00
freq.    3069.52  E(vib)   ...       0.00
freq.    3071.56  E(vib)   ...       0.00
freq.    3125.63  E(vib)   ...       0.00
freq.    3130.23  E(vib)   ...       0.00
freq.    3147.87  E(vib)   ...       0.00
freq.    3148.52  E(vib)   ...       0.00
freq.    3163.01  E(vib)   ...       0.00
freq.    3165.80  E(vib)   ...       0.00
freq.    3169.70  E(vib)   ...       0.00
freq.    3169.77  E(vib)   ...       0.00
freq.    3171.59  E(vib)   ...       0.00
freq.    3172.10  E(vib)   ...       0.00
freq.    3180.09  E(vib)   ...       0.00
freq.    3183.51  E(vib)   ...       0.00
freq.    3183.77  E(vib)   ...       0.00
freq.    3186.75  E(vib)   ...       0.00

------------
INNER ENERGY
------------

The inner energy is: U= E(el) + E(ZPE) + E(vib) + E(rot) + E(trans)
    E(el)   - is the total energy from the electronic structure calculation
              = E(kin-el) + E(nuc-el) + E(el-el) + E(nuc-nuc)
    E(ZPE)  - the the zero temperature vibrational energy from the frequency calculation
    E(vib)  - the the finite temperature correction to E(ZPE) due to population
              of excited vibrational states
    E(rot)  - is the rotational thermal energy
    E(trans)- is the translational thermal energy

Summary of contributions to the inner energy U:
Electronic energy                ...   -540.19769620 Eh
Zero point energy                ...      0.29756830 Eh     186.73 kcal/mol
Thermal vibrational correction   ...      0.01148314 Eh       7.21 kcal/mol
Thermal rotational correction    ...      0.00141627 Eh       0.89 kcal/mol
Thermal translational correction ...      0.00141627 Eh       0.89 kcal/mol
-----------------------------------------------------------------------
Total thermal energy                   -539.88581221 Eh

Summary of corrections to the electronic energy:
(perhaps to be used in another calculation)
Total thermal correction                  0.01431569 Eh       8.98 kcal/mol
Non-thermal (ZPE) correction              0.29756830 Eh     186.73 kcal/mol
-----------------------------------------------------------------------
Total correction                          0.31188399 Eh     195.71 kcal/mol

--------
ENTHALPY
--------

The enthalpy is H = U + kB*T
                kB is Boltzmann's constant
Total free energy                 ...   -539.88581221 Eh
Thermal Enthalpy correction       ...      0.00094421 Eh       0.59 kcal/mol
-----------------------------------------------------------------------
Total Enthalpy                    ...   -539.88486800 Eh

Note: Only C1 symmetry has been detected, increase convergence thresholds
      if your molecule has a higher symmetry. Symmetry factor of 1.0 is
      used for the rotational entropy correction.

Note: Rotational entropy computed according to Herzberg
Infrared and Raman Spectra, Chapter V,1, Van Nostrand Reinhold, 1945
Point Group:  C1, Symmetry Number:   1
Rotational constants in cm-1:     0.035949     0.019236     0.014944

                             ****ORCA TERMINATED NORMALLY****
TOTAL RUN TIME: 0 days 1 hours 51 minutes 27 seconds 970 msec
