                         Program Version 5.0.4 -  RELEASE  -
|  1> # ORCA 5.0.4 - /users/bwb16179/postgrad/2024_03/DFT_Crest_Conformers/Opt/prot/6_prot_aq_5.inp # write input file
|  2> # Basic Mode
|  3> #
|  4> ! Opt Freq wB97X Def2-SVP D4 SlowConv TightSCF Defgrid2 Def2/J RIJCOSX CPCM(Water)
|  5>
|  6>
|  7>
|  8> %maxcore 4500
|  9>
| 10> %geom
| 11> Maxiter 150
| 12> END
| 13>
| 14> * xyzfile 1 1 6_prot_aq_5.xyz
| 15>
| 16>                          ****END OF INPUT****
 Total Charge           Charge          ....    1
 Multiplicity           Mult            ....    1
 Number of Electrons    NEL             ....  100
Dispersion correction           -0.005650086
FINAL SINGLE POINT ENERGY      -540.697122405684
Dispersion correction            ... Starting D4
Dispersion correction           -0.005628639
FINAL SINGLE POINT ENERGY      -540.700603663341
Dispersion correction            ... Starting D4
Dispersion correction           -0.005626204
FINAL SINGLE POINT ENERGY      -540.700871454804
Dispersion correction            ... Starting D4
FINAL SINGLE POINT ENERGY      -540.701041509630
FINAL SINGLE POINT ENERGY      -540.701084239292
FINAL SINGLE POINT ENERGY      -540.701115788036
Dispersion correction           -0.005623169
FINAL SINGLE POINT ENERGY      -540.701121441839
Dispersion correction            ... Starting D4
Dispersion correction           -0.005622973
FINAL SINGLE POINT ENERGY      -540.701123727821
Dispersion correction            ... Starting D4
                    ***********************HURRAY********************

CARTESIAN COORDINATES (ANGSTROEM)
---------------------------------
  N     -1.086494   -0.369659   -0.031194
  C      0.000115   -1.133142   -0.000591
  N      1.086580   -0.369486    0.030818
  H      0.000221   -2.223497   -0.001179
  C      0.686196    0.960962    0.018309
  C     -0.686365    0.960849   -0.017257
  C     -2.451771   -0.946421   -0.017871
  C      2.451964   -0.945983    0.016863
  C     -3.119443   -0.739138    1.335999
  H     -2.276628   -2.024543   -0.150936
  C     -3.287377   -0.461366   -1.194706
  C      3.287437   -0.462133    1.194286
  C      3.119656   -0.737043   -1.336742
  H      2.277009   -2.024286    0.148695
  C      1.615040    2.129243    0.060304
  C     -1.615417    2.129006   -0.058015
  H     -3.348238    0.320241    1.524743
  H     -2.479841   -1.113323    2.149004
  H     -4.067053   -1.296906    1.356071
  H     -3.590898    0.589179   -1.083696
  H     -4.202283   -1.069191   -1.247172
  H     -2.742140   -0.577864   -2.142936
  H      4.202419   -1.069898    1.246141
  H      2.742148   -0.579770    2.142346
  H      3.590837    0.588575    1.084486
  H      4.067391   -1.294577   -1.357382
  H      3.348221    0.322597   -1.524279
  H      2.480185   -1.110452   -2.150207
  H     -2.426016    2.032024    0.677346
  H     -2.066779    2.250639   -1.054094
  H     -1.059939    3.045825    0.175332
  H      2.066638    2.249704    1.056417
  H      1.059347    3.046262   -0.171738
  H      2.425466    2.033343   -0.675395

 Multiplicity           Mult            ....    1
 Number of Electrons    NEL             ....  100
 Basis Dimension        Dim             ....  287

ORBITAL ENERGIES
----------------

  NO   OCC          E(Eh)            E(eV)
   0   2.0000     -14.502171      -394.6241
   1   2.0000     -14.502150      -394.6236
   2   2.0000     -10.376437      -282.3572
   3   2.0000     -10.336536      -281.2714
   4   2.0000     -10.336514      -281.2709
   5   2.0000     -10.333580      -281.1910
   6   2.0000     -10.333095      -281.1778
   7   2.0000     -10.286702      -279.9154
   8   2.0000     -10.286643      -279.9138
   9   2.0000     -10.273760      -279.5632
  10   2.0000     -10.273760      -279.5632
  11   2.0000     -10.273562      -279.5578
  12   2.0000     -10.273559      -279.5578
  13   2.0000      -1.207643       -32.8616
  14   2.0000      -1.090180       -29.6653
  15   2.0000      -0.966170       -26.2908
  16   2.0000      -0.941400       -25.6168
  17   2.0000      -0.913564       -24.8593
  18   2.0000      -0.869734       -23.6667
  19   2.0000      -0.828980       -22.5577
  20   2.0000      -0.821272       -22.3479
  21   2.0000      -0.820761       -22.3340
  22   2.0000      -0.790103       -21.4998
  23   2.0000      -0.751052       -20.4372
  24   2.0000      -0.715381       -19.4665
  25   2.0000      -0.699003       -19.0208
  26   2.0000      -0.644535       -17.5387
  27   2.0000      -0.629534       -17.1305
  28   2.0000      -0.615706       -16.7542
  29   2.0000      -0.593454       -16.1487
  30   2.0000      -0.570696       -15.5294
  31   2.0000      -0.568099       -15.4588
  32   2.0000      -0.555540       -15.1170
  33   2.0000      -0.546771       -14.8784
  34   2.0000      -0.539630       -14.6841
  35   2.0000      -0.534765       -14.5517
  36   2.0000      -0.532372       -14.4866
  37   2.0000      -0.522891       -14.2286
  38   2.0000      -0.508432       -13.8351
  39   2.0000      -0.502811       -13.6822
  40   2.0000      -0.495917       -13.4946
  41   2.0000      -0.494062       -13.4441
  42   2.0000      -0.489759       -13.3270
  43   2.0000      -0.485635       -13.2148
  44   2.0000      -0.470338       -12.7985
  45   2.0000      -0.461837       -12.5672
  46   2.0000      -0.449451       -12.2302
  47   2.0000      -0.449150       -12.2220
  48   2.0000      -0.407046       -11.0763
  49   2.0000      -0.348255        -9.4765
  50   0.0000       0.066048         1.7973
  51   0.0000       0.101158         2.7527
  52   0.0000       0.131713         3.5841
  53   0.0000       0.146384         3.9833
  54   0.0000       0.150211         4.0875

MULLIKEN ATOMIC CHARGES
-----------------------
   0 N :   -0.189085
   1 C :    0.203021
   2 N :   -0.189089
   3 H :    0.134468
   4 C :   -0.089854
   5 C :   -0.089849
   6 C :   -0.050897
   7 C :   -0.050892
   8 C :    0.000061
   9 H :    0.071711
  10 C :   -0.012447
  11 C :   -0.012452
  12 C :    0.000067
  13 H :    0.071710
  14 C :    0.074642
  15 C :    0.074628
  16 H :    0.046153
  17 H :    0.053280
  18 H :    0.061156
  19 H :    0.044208
  20 H :    0.062023
  21 H :    0.056781
  22 H :    0.062024
  23 H :    0.056778
  24 H :    0.044213
  25 H :    0.061156
  26 H :    0.046144
  27 H :    0.053283
  28 H :    0.064294
  29 H :    0.082672
  30 H :    0.056570
  31 H :    0.082670
  32 H :    0.056555
  33 H :    0.064298
Sum of atomic charges:    1.0000000

LOEWDIN ATOMIC CHARGES
----------------------
   0 N :    0.092331
   1 C :    0.117190
   2 N :    0.092330
   3 H :    0.068048
   4 C :   -0.004282
   5 C :   -0.004280
   6 C :    0.043019
   7 C :    0.043019
   8 C :   -0.054296
   9 H :    0.049324
  10 C :   -0.055333
  11 C :   -0.055333
  12 C :   -0.054295
  13 H :    0.049323
  14 C :   -0.051244
  15 C :   -0.051245
  16 H :    0.033273
  17 H :    0.037459
  18 H :    0.045519
  19 H :    0.033647
  20 H :    0.046469
  21 H :    0.038643
  22 H :    0.046470
  23 H :    0.038642
  24 H :    0.033646
  25 H :    0.045520
  26 H :    0.033271
  27 H :    0.037460
  28 H :    0.047676
  29 H :    0.052531
  30 H :    0.052647
  31 H :    0.052529
  32 H :    0.052646
  33 H :    0.047678

  Mayer bond orders larger than 0.100000
B(  0-N ,  1-C ) :   1.3533 B(  0-N ,  5-C ) :   1.1561 B(  0-N ,  6-C ) :   0.8583
B(  1-C ,  2-N ) :   1.3533 B(  1-C ,  3-H ) :   0.9656 B(  2-N ,  4-C ) :   1.1561
B(  2-N ,  7-C ) :   0.8583 B(  4-C ,  5-C ) :   1.6257 B(  4-C , 14-C ) :   1.0920
B(  5-C , 15-C ) :   1.0920 B(  6-C ,  8-C ) :   1.0721 B(  6-C ,  9-H ) :   0.9356
B(  6-C , 10-C ) :   1.0698 B(  7-C , 11-C ) :   1.0699 B(  7-C , 12-C ) :   1.0722
B(  7-C , 13-H ) :   0.9356 B(  8-C , 16-H ) :   0.9610 B(  8-C , 17-H ) :   0.9648
B(  8-C , 18-H ) :   0.9676 B( 10-C , 19-H ) :   0.9632 B( 10-C , 20-H ) :   0.9658
B( 10-C , 21-H ) :   0.9664 B( 11-C , 22-H ) :   0.9658 B( 11-C , 23-H ) :   0.9664
B( 11-C , 24-H ) :   0.9632 B( 12-C , 25-H ) :   0.9676 B( 12-C , 26-H ) :   0.9610
B( 12-C , 27-H ) :   0.9648 B( 14-C , 31-H ) :   0.9467 B( 14-C , 32-H ) :   0.9374
B( 14-C , 33-H ) :   0.9459 B( 15-C , 28-H ) :   0.9459 B( 15-C , 29-H ) :   0.9467
B( 15-C , 30-H ) :   0.9374

Dispersion correction           -0.005623084
FINAL SINGLE POINT ENERGY      -540.701125603896

DIPOLE MOMENT
-------------
                                X             Y             Z
Electronic contribution:      0.00018      -2.56495      -0.00149
Nuclear contribution   :     -0.00012       1.87096       0.00111
                        -----------------------------------------
Total Dipole Moment    :      0.00006      -0.69399      -0.00038
                        -----------------------------------------
Magnitude (a.u.)       :      0.69399
Magnitude (Debye)      :      1.76397

Dispersion correction in the Hessian             ... Starting D4

VIBRATIONAL FREQUENCIES
-----------------------

Scaling factor for frequencies =  1.000000000  (already applied!)

   0:         0.00 cm**-1
   1:         0.00 cm**-1
   2:         0.00 cm**-1
   3:         0.00 cm**-1
   4:         0.00 cm**-1
   5:         0.00 cm**-1
   6:        42.68 cm**-1
   7:        51.03 cm**-1
   8:        99.26 cm**-1
   9:       116.51 cm**-1
  10:       170.33 cm**-1
  11:       190.28 cm**-1
  12:       193.98 cm**-1
  13:       216.14 cm**-1
  14:       229.18 cm**-1
  15:       235.99 cm**-1
  16:       240.18 cm**-1
  17:       269.54 cm**-1
  18:       275.07 cm**-1
  19:       284.92 cm**-1
  20:       304.43 cm**-1
  21:       332.05 cm**-1
  22:       342.02 cm**-1
  23:       388.69 cm**-1
  24:       410.77 cm**-1
  25:       456.73 cm**-1
  26:       487.81 cm**-1
  27:       538.17 cm**-1
  28:       600.19 cm**-1
  29:       644.92 cm**-1
  30:       677.19 cm**-1
  31:       718.89 cm**-1
  32:       756.59 cm**-1
  33:       774.05 cm**-1
  34:       875.54 cm**-1
  35:       917.57 cm**-1
  36:       931.80 cm**-1
  37:       934.82 cm**-1
  38:       935.03 cm**-1
  39:       963.70 cm**-1
  40:       963.98 cm**-1
  41:       983.05 cm**-1
  42:      1040.51 cm**-1
  43:      1046.40 cm**-1
  44:      1069.34 cm**-1
  45:      1085.17 cm**-1
  46:      1135.10 cm**-1
  47:      1174.51 cm**-1
  48:      1175.90 cm**-1
  49:      1180.59 cm**-1
  50:      1184.89 cm**-1
  51:      1215.02 cm**-1
  52:      1231.88 cm**-1
  53:      1279.75 cm**-1
  54:      1347.81 cm**-1
  55:      1348.45 cm**-1
  56:      1349.49 cm**-1
  57:      1370.46 cm**-1
  58:      1400.43 cm**-1
  59:      1401.08 cm**-1
  60:      1402.68 cm**-1
  61:      1405.54 cm**-1
  62:      1406.62 cm**-1
  63:      1420.24 cm**-1
  64:      1434.72 cm**-1
  65:      1444.06 cm**-1
  66:      1444.63 cm**-1
  67:      1445.39 cm**-1
  68:      1448.72 cm**-1
  69:      1451.29 cm**-1
  70:      1454.28 cm**-1
  71:      1460.44 cm**-1
  72:      1463.52 cm**-1
  73:      1465.89 cm**-1
  74:      1469.30 cm**-1
  75:      1472.37 cm**-1
  76:      1472.41 cm**-1
  77:      1518.82 cm**-1
  78:      1533.49 cm**-1
  79:      1650.55 cm**-1
  80:      1715.33 cm**-1
  81:      3078.02 cm**-1
  82:      3078.05 cm**-1
  83:      3082.11 cm**-1
  84:      3082.17 cm**-1
  85:      3091.25 cm**-1
  86:      3092.90 cm**-1
  87:      3128.39 cm**-1
  88:      3128.50 cm**-1
  89:      3183.41 cm**-1
  90:      3183.67 cm**-1
  91:      3185.17 cm**-1
  92:      3185.19 cm**-1
  93:      3186.14 cm**-1
  94:      3186.29 cm**-1
  95:      3189.65 cm**-1
  96:      3190.70 cm**-1
  97:      3194.39 cm**-1
  98:      3194.41 cm**-1
  99:      3208.31 cm**-1
 100:      3212.78 cm**-1
 101:      3297.65 cm**-1

IR SPECTRUM
-----------

 Mode   freq       eps      Int      T**2         TX        TY        TZ
       cm**-1   L/(mol*cm) km/mol    a.u.
----------------------------------------------------------------------------
  6:     42.68   0.000007    0.03  0.000049  (-0.005978 -0.000028 -0.003573)
  7:     51.03   0.000000    0.00  0.000001  ( 0.000153 -0.000972  0.000059)
  8:     99.26   0.000000    0.00  0.000000  ( 0.000005  0.000213  0.000103)
  9:    116.51   0.000111    0.56  0.000297  (-0.004333  0.000003 -0.016695)
 10:    170.33   0.000004    0.02  0.000007  (-0.000000 -0.002669 -0.000034)
 11:    190.28   0.000015    0.08  0.000025  ( 0.000640 -0.000435 -0.004942)
 12:    193.98   0.000046    0.23  0.000074  ( 0.000038  0.008590 -0.000259)
 13:    216.14   0.000003    0.01  0.000004  (-0.000006  0.002036 -0.000017)
 14:    229.18   0.000115    0.58  0.000156  (-0.001765 -0.000048 -0.012385)
 15:    235.99   0.000059    0.30  0.000077  (-0.000124  0.008800 -0.000153)
 16:    240.18   0.000030    0.15  0.000038  (-0.005466 -0.000157 -0.002917)
 17:    269.54   0.000005    0.02  0.000005  (-0.000015  0.002304  0.000125)
 18:    275.07   0.000815    4.12  0.000925  (-0.000300  0.000039 -0.030405)
 19:    284.92   0.000006    0.03  0.000007  ( 0.000002 -0.002537 -0.000255)
 20:    304.43   0.002007   10.14  0.002058  (-0.003567 -0.000027  0.045219)
 21:    332.05   0.000032    0.16  0.000030  (-0.000023  0.005485  0.000006)
 22:    342.02   0.000042    0.21  0.000038  (-0.003555 -0.000021  0.005061)
 23:    388.69   0.000324    1.64  0.000260  (-0.013815 -0.000002 -0.008344)
 24:    410.77   0.000376    1.90  0.000286  (-0.016416  0.000005  0.004031)
 25:    456.73   0.000402    2.03  0.000274  ( 0.000010  0.016565  0.000008)
 26:    487.81   0.000064    0.32  0.000041  (-0.000005 -0.006386  0.000006)
 27:    538.17   0.000243    1.23  0.000141  (-0.011787 -0.000001  0.001385)
 28:    600.19   0.000001    0.00  0.000000  (-0.000010  0.000511 -0.000002)
 29:    644.92   0.001365    6.90  0.000660  ( 0.025569  0.000005 -0.002581)
 30:    677.19   0.006196   31.31  0.002855  ( 0.004879 -0.000027  0.053213)
 31:    718.89   0.000008    0.04  0.000004  (-0.000005 -0.001888 -0.000010)
 32:    756.59   0.000146    0.74  0.000060  (-0.000004  0.007761  0.000010)
 33:    774.05   0.001173    5.93  0.000473  (-0.021098 -0.000009  0.005284)
 34:    875.54   0.002661   13.45  0.000948  ( 0.002752  0.000020 -0.030673)
 35:    917.57   0.001044    5.28  0.000355  (-0.000013  0.018847 -0.000002)
 36:    931.80   0.000425    2.15  0.000142  ( 0.011791  0.000010 -0.001774)
 37:    934.82   0.000052    0.26  0.000017  (-0.000346 -0.002710 -0.003121)
 38:    935.03   0.001397    7.06  0.000466  (-0.002498  0.000393 -0.021446)
 39:    963.70   0.000026    0.13  0.000008  (-0.000010 -0.002873  0.000123)
 40:    963.98   0.000296    1.50  0.000096  (-0.000494 -0.000024 -0.009777)
 41:    983.05   0.000598    3.02  0.000190  ( 0.000004 -0.013773 -0.000005)
 42:   1040.51   0.001580    7.99  0.000474  (-0.005493  0.000004 -0.021065)
 43:   1046.40   0.002691   13.60  0.000803  (-0.028170 -0.000010 -0.002997)
 44:   1069.34   0.000332    1.68  0.000097  (-0.000009  0.009837 -0.000035)
 45:   1085.17   0.003916   19.79  0.001126  ( 0.000009  0.033559  0.000016)
 46:   1135.10   0.010648   53.81  0.002927  ( 0.054070 -0.000013  0.001960)
 47:   1174.51   0.000006    0.03  0.000002  ( 0.000007 -0.001288 -0.000003)
 48:   1175.90   0.004423   22.35  0.001174  (-0.004415  0.000081 -0.033973)
 49:   1180.59   0.001226    6.19  0.000324  ( 0.000004  0.017998  0.000138)
 50:   1184.89   0.001722    8.70  0.000454  ( 0.021294  0.000028  0.000306)
 51:   1215.02   0.000398    2.01  0.000102  ( 0.000009 -0.010114 -0.000004)
 52:   1231.88   0.022358  112.99  0.005664  (-0.075259 -0.000008 -0.000144)
 53:   1279.75   0.018283   92.39  0.004458  (-0.066767 -0.000002 -0.000600)
 54:   1347.81   0.000089    0.45  0.000021  (-0.000041  0.004540 -0.000015)
 55:   1348.45   0.000170    0.86  0.000039  ( 0.004199  0.000252 -0.004661)
 56:   1349.49   0.002579   13.03  0.000596  ( 0.000080 -0.024421 -0.000059)
 57:   1370.46   0.012790   64.64  0.002912  (-0.053934 -0.000031  0.001887)
 58:   1400.43   0.000053    0.27  0.000012  (-0.000213  0.003402 -0.000510)
 59:   1401.08   0.009199   46.49  0.002049  ( 0.009187  0.000130  0.044322)
 60:   1402.68   0.000498    2.51  0.000111  (-0.000118  0.010510 -0.000448)
 61:   1405.54   0.000165    0.84  0.000037  ( 0.000805 -0.006005 -0.000104)
 62:   1406.62   0.006185   31.25  0.001372  ( 0.036367  0.000162 -0.007034)
 63:   1420.24   0.005265   26.61  0.001157  ( 0.033910 -0.000026 -0.002650)
 64:   1434.72   0.006176   31.21  0.001343  (-0.000018  0.036651  0.000078)
 65:   1444.06   0.004142   20.93  0.000895  ( 0.006601 -0.000023  0.029181)
 66:   1444.63   0.001119    5.65  0.000242  (-0.000218 -0.000113  0.015543)
 67:   1445.39   0.000036    0.18  0.000008  (-0.000057  0.002785  0.000009)
 68:   1448.72   0.002050   10.36  0.000442  ( 0.016212  0.000031 -0.013373)
 69:   1451.29   0.000055    0.28  0.000012  ( 0.000057  0.003446 -0.000174)
 70:   1454.28   0.001473    7.45  0.000316  ( 0.000023 -0.017781 -0.000027)
 71:   1460.44   0.000131    0.66  0.000028  (-0.000099  0.005288  0.000062)
 72:   1463.52   0.003091   15.62  0.000659  ( 0.018815  0.000107 -0.017469)
 73:   1465.89   0.000056    0.28  0.000012  (-0.002775 -0.000053  0.002053)
 74:   1469.30   0.008944   45.20  0.001900  (-0.000020  0.043585  0.000041)
 75:   1472.37   0.000285    1.44  0.000060  (-0.000103  0.005237 -0.005749)
 76:   1472.41   0.000441    2.23  0.000094  (-0.000023  0.009009  0.003520)
 77:   1518.82   0.000639    3.23  0.000131  (-0.000001  0.011457  0.000006)
 78:   1533.49   0.000519    2.62  0.000106  ( 0.010089 -0.000005 -0.001953)
 79:   1650.55   0.047092  237.98  0.008904  (-0.094357 -0.000010  0.000583)
 80:   1715.33   0.005987   30.25  0.001089  ( 0.000005 -0.033002 -0.000017)
 81:   3078.02   0.005535   27.97  0.000561  ( 0.004790 -0.000060 -0.023200)
 82:   3078.05   0.000100    0.50  0.000010  (-0.000631 -0.000536  0.003071)
 83:   3082.11   0.003028   15.30  0.000307  ( 0.011395 -0.000352  0.013288)
 84:   3082.17   0.000195    0.99  0.000020  (-0.000935 -0.004203 -0.001093)
 85:   3091.25   0.003827   19.34  0.000386  (-0.019617 -0.000045 -0.001231)
 86:   3092.90   0.001699    8.58  0.000171  (-0.000078  0.013091 -0.000005)
 87:   3128.39   0.000074    0.37  0.000007  (-0.000330  0.000816 -0.002572)
 88:   3128.50   0.002433   12.29  0.000243  (-0.000015 -0.015577 -0.000143)
 89:   3183.41   0.001906    9.63  0.000187  ( 0.006506  0.000069  0.012023)
 90:   3183.67   0.001848    9.34  0.000181  ( 0.000041 -0.013459  0.000060)
 91:   3185.17   0.002027   10.24  0.000199  (-0.000159 -0.000211 -0.014090)
 92:   3185.19   0.000061    0.31  0.000006  ( 0.000071 -0.001978  0.001449)
 93:   3186.14   0.005714   28.87  0.000560  ( 0.023229 -0.000018 -0.004477)
 94:   3186.29   0.000177    0.89  0.000017  (-0.000174 -0.004154  0.000055)
 95:   3189.65   0.000527    2.66  0.000052  ( 0.004090  0.000032  0.005900)
 96:   3190.70   0.005593   28.27  0.000547  (-0.000013  0.023389  0.000025)
 97:   3194.39   0.000838    4.23  0.000082  ( 0.003191 -0.007124 -0.004575)
 98:   3194.41   0.003734   18.87  0.000365  (-0.001201 -0.018982  0.001727)
 99:   3208.31   0.000939    4.74  0.000091  (-0.009347  0.000014  0.001987)
100:   3212.78   0.000124    0.63  0.000012  (-0.000027 -0.003466  0.000008)
101:   3297.65   0.010814   54.65  0.001023  (-0.000003  0.031990  0.000018)

--------------------------
THERMOCHEMISTRY AT 298.15K
--------------------------

Temperature         ... 298.15 K
Pressure            ... 1.00 atm
Total Mass          ... 181.30 AMU

Throughout the following assumptions are being made:
  (1) The electronic state is orbitally nondegenerate
  (2) There are no thermally accessible electronically excited states
  (3) Hindered rotations indicated by low frequency modes are not
      treated as such but are treated as vibrations and this may
      cause some error
  (4) All equations used are the standard statistical mechanics
      equations for an ideal gas
  (5) All vibrations are strictly harmonic

freq.      42.68  E(vib)   ...       0.53
freq.      51.03  E(vib)   ...       0.52
freq.      99.26  E(vib)   ...       0.46
freq.     116.51  E(vib)   ...       0.44
freq.     170.33  E(vib)   ...       0.38
freq.     190.28  E(vib)   ...       0.36
freq.     193.98  E(vib)   ...       0.36
freq.     216.14  E(vib)   ...       0.34
freq.     229.18  E(vib)   ...       0.32
freq.     235.99  E(vib)   ...       0.32
freq.     240.18  E(vib)   ...       0.31
freq.     269.54  E(vib)   ...       0.29
freq.     275.07  E(vib)   ...       0.28
freq.     284.92  E(vib)   ...       0.28
freq.     304.43  E(vib)   ...       0.26
freq.     332.05  E(vib)   ...       0.24
freq.     342.02  E(vib)   ...       0.23
freq.     388.69  E(vib)   ...       0.20
freq.     410.77  E(vib)   ...       0.19
freq.     456.73  E(vib)   ...       0.16
freq.     487.81  E(vib)   ...       0.15
freq.     538.17  E(vib)   ...       0.12
freq.     600.19  E(vib)   ...       0.10
freq.     644.92  E(vib)   ...       0.09
freq.     677.19  E(vib)   ...       0.08
freq.     718.89  E(vib)   ...       0.07
freq.     756.59  E(vib)   ...       0.06
freq.     774.05  E(vib)   ...       0.05
freq.     875.54  E(vib)   ...       0.04
freq.     917.57  E(vib)   ...       0.03
freq.     931.80  E(vib)   ...       0.03
freq.     934.82  E(vib)   ...       0.03
freq.     935.03  E(vib)   ...       0.03
freq.     963.70  E(vib)   ...       0.03
freq.     963.98  E(vib)   ...       0.03
freq.     983.05  E(vib)   ...       0.02
freq.    1040.51  E(vib)   ...       0.02
freq.    1046.40  E(vib)   ...       0.02
freq.    1069.34  E(vib)   ...       0.02
freq.    1085.17  E(vib)   ...       0.02
freq.    1135.10  E(vib)   ...       0.01
freq.    1174.51  E(vib)   ...       0.01
freq.    1175.90  E(vib)   ...       0.01
freq.    1180.59  E(vib)   ...       0.01
freq.    1184.89  E(vib)   ...       0.01
freq.    1215.02  E(vib)   ...       0.01
freq.    1231.88  E(vib)   ...       0.01
freq.    1279.75  E(vib)   ...       0.01
freq.    1347.81  E(vib)   ...       0.01
freq.    1348.45  E(vib)   ...       0.01
freq.    1349.49  E(vib)   ...       0.01
freq.    1370.46  E(vib)   ...       0.01
freq.    1400.43  E(vib)   ...       0.00
freq.    1401.08  E(vib)   ...       0.00
freq.    1402.68  E(vib)   ...       0.00
freq.    1405.54  E(vib)   ...       0.00
freq.    1406.62  E(vib)   ...       0.00
freq.    1420.24  E(vib)   ...       0.00
freq.    1434.72  E(vib)   ...       0.00
freq.    1444.06  E(vib)   ...       0.00
freq.    1444.63  E(vib)   ...       0.00
freq.    1445.39  E(vib)   ...       0.00
freq.    1448.72  E(vib)   ...       0.00
freq.    1451.29  E(vib)   ...       0.00
freq.    1454.28  E(vib)   ...       0.00
freq.    1460.44  E(vib)   ...       0.00
freq.    1463.52  E(vib)   ...       0.00
freq.    1465.89  E(vib)   ...       0.00
freq.    1469.30  E(vib)   ...       0.00
freq.    1472.37  E(vib)   ...       0.00
freq.    1472.41  E(vib)   ...       0.00
freq.    1518.82  E(vib)   ...       0.00
freq.    1533.49  E(vib)   ...       0.00
freq.    1650.55  E(vib)   ...       0.00
freq.    1715.33  E(vib)   ...       0.00
freq.    3078.02  E(vib)   ...       0.00
freq.    3078.05  E(vib)   ...       0.00
freq.    3082.11  E(vib)   ...       0.00
freq.    3082.17  E(vib)   ...       0.00
freq.    3091.25  E(vib)   ...       0.00
freq.    3092.90  E(vib)   ...       0.00
freq.    3128.39  E(vib)   ...       0.00
freq.    3128.50  E(vib)   ...       0.00
freq.    3183.41  E(vib)   ...       0.00
freq.    3183.67  E(vib)   ...       0.00
freq.    3185.17  E(vib)   ...       0.00
freq.    3185.19  E(vib)   ...       0.00
freq.    3186.14  E(vib)   ...       0.00
freq.    3186.29  E(vib)   ...       0.00
freq.    3189.65  E(vib)   ...       0.00
freq.    3190.70  E(vib)   ...       0.00
freq.    3194.39  E(vib)   ...       0.00
freq.    3194.41  E(vib)   ...       0.00
freq.    3208.31  E(vib)   ...       0.00
freq.    3212.78  E(vib)   ...       0.00
freq.    3297.65  E(vib)   ...       0.00

------------
INNER ENERGY
------------

The inner energy is: U= E(el) + E(ZPE) + E(vib) + E(rot) + E(trans)
    E(el)   - is the total energy from the electronic structure calculation
              = E(kin-el) + E(nuc-el) + E(el-el) + E(nuc-nuc)
    E(ZPE)  - the the zero temperature vibrational energy from the frequency calculation
    E(vib)  - the the finite temperature correction to E(ZPE) due to population
              of excited vibrational states
    E(rot)  - is the rotational thermal energy
    E(trans)- is the translational thermal energy

Summary of contributions to the inner energy U:
Electronic energy                ...   -540.70112560 Eh
Zero point energy                ...      0.31194783 Eh     195.75 kcal/mol
Thermal vibrational correction   ...      0.01226572 Eh       7.70 kcal/mol
Thermal rotational correction    ...      0.00141627 Eh       0.89 kcal/mol
Thermal translational correction ...      0.00141627 Eh       0.89 kcal/mol
-----------------------------------------------------------------------
Total thermal energy                   -540.37407951 Eh

Summary of corrections to the electronic energy:
(perhaps to be used in another calculation)
Total thermal correction                  0.01509826 Eh       9.47 kcal/mol
Non-thermal (ZPE) correction              0.31194783 Eh     195.75 kcal/mol
-----------------------------------------------------------------------
Total correction                          0.32704609 Eh     205.22 kcal/mol

--------
ENTHALPY
--------

The enthalpy is H = U + kB*T
                kB is Boltzmann's constant
Total free energy                 ...   -540.37407951 Eh
Thermal Enthalpy correction       ...      0.00094421 Eh       0.59 kcal/mol
-----------------------------------------------------------------------
Total Enthalpy                    ...   -540.37313530 Eh

Note: Only C1 symmetry has been detected, increase convergence thresholds
      if your molecule has a higher symmetry. Symmetry factor of 1.0 is
      used for the rotational entropy correction.

Rotational constants in cm-1:     0.046397     0.016269     0.014366

                             ****ORCA TERMINATED NORMALLY****
TOTAL RUN TIME: 0 days 2 hours 7 minutes 44 seconds 875 msec
