                         Program Version 5.0.4 -  RELEASE  -
|  1> # ORCA 5.0.4 - /users/bwb16179/postgrad/2024_03/DFT_Crest_Conformers/Opt/prot/6_prot_aq_4.inp # write input file
|  2> # Basic Mode
|  3> #
|  4> ! Opt Freq wB97X Def2-SVP D4 SlowConv TightSCF Defgrid2 Def2/J RIJCOSX CPCM(Water)
|  5>
|  6>
|  7>
|  8> %maxcore 4500
|  9>
| 10> %geom
| 11> Maxiter 150
| 12> END
| 13>
| 14> * xyzfile 1 1 6_prot_aq_4.xyz
| 15>
| 16>                          ****END OF INPUT****
 Total Charge           Charge          ....    1
 Multiplicity           Mult            ....    1
 Number of Electrons    NEL             ....  100
Dispersion correction           -0.005634085
FINAL SINGLE POINT ENERGY      -540.697616540263
Dispersion correction            ... Starting D4
Dispersion correction           -0.005612894
FINAL SINGLE POINT ENERGY      -540.701099257998
Dispersion correction            ... Starting D4
Dispersion correction           -0.005609930
FINAL SINGLE POINT ENERGY      -540.701337804051
Dispersion correction            ... Starting D4
FINAL SINGLE POINT ENERGY      -540.701470895056
FINAL SINGLE POINT ENERGY      -540.701516215384
FINAL SINGLE POINT ENERGY      -540.701590075607
FINAL SINGLE POINT ENERGY      -540.701709673488
FINAL SINGLE POINT ENERGY      -540.701924599178
FINAL SINGLE POINT ENERGY      -540.702177080915
FINAL SINGLE POINT ENERGY      -540.702426040504
FINAL SINGLE POINT ENERGY      -540.702746676300
FINAL SINGLE POINT ENERGY      -540.702999352654
FINAL SINGLE POINT ENERGY      -540.703179713216
FINAL SINGLE POINT ENERGY      -540.703277303249
FINAL SINGLE POINT ENERGY      -540.703357167251
FINAL SINGLE POINT ENERGY      -540.703351209622
FINAL SINGLE POINT ENERGY      -540.703369630713
Dispersion correction           -0.005608554
FINAL SINGLE POINT ENERGY      -540.703388598897
Dispersion correction            ... Starting D4
Dispersion correction           -0.005608801
FINAL SINGLE POINT ENERGY      -540.703398676157
Dispersion correction            ... Starting D4
                    ***********************HURRAY********************

CARTESIAN COORDINATES (ANGSTROEM)
---------------------------------
  N     -1.003835   -0.301561   -0.069639
  C      0.145610   -0.956790   -0.203483
  N      1.156758   -0.103530   -0.091563
  H      0.231124   -2.028258   -0.378487
  C      0.641800    1.164418    0.131155
  C     -0.724415    1.044403    0.141919
  C     -2.314162   -0.983023   -0.197739
  C      2.592883   -0.454931   -0.117651
  C     -3.176067   -0.785343    1.041522
  H     -2.046347   -2.048975   -0.255393
  C     -3.008808   -0.601319   -1.498969
  C      2.852617   -1.615029   -1.066863
  C      3.086470   -0.729483    1.297672
  H      3.093569    0.440511   -0.514055
  C      1.508453    2.366120    0.294077
  C     -1.749567    2.108207    0.355559
  H     -4.038965   -1.464352    0.981866
  H     -3.564498    0.240172    1.117651
  H     -2.611956   -1.023807    1.955309
  H     -3.898137   -1.235476   -1.626728
  H     -2.343327   -0.761855   -2.359947
  H     -3.341121    0.447226   -1.497959
  H      2.437376   -1.417254   -2.066144
  H      2.431148   -2.557068   -0.682419
  H      3.938354   -1.754796   -1.165207
  H      4.171746   -0.906019    1.280873
  H      2.594421   -1.624847    1.709332
  H      2.885082    0.119465    1.967633
  H     -2.228370    2.015026    1.341715
  H     -2.534831    2.083441   -0.412407
  H     -1.265216    3.091718    0.308251
  H      0.889047    3.253231    0.474709
  H      2.110312    2.547207   -0.609927
  H      2.196789    2.253993    1.145406

 Multiplicity           Mult            ....    1
 Number of Electrons    NEL             ....  100
 Basis Dimension        Dim             ....  287

ORBITAL ENERGIES
----------------

  NO   OCC          E(Eh)            E(eV)
   0   2.0000     -14.502158      -394.6238
   1   2.0000     -14.501541      -394.6070
   2   2.0000     -10.376611      -282.3619
   3   2.0000     -10.336335      -281.2660
   4   2.0000     -10.335870      -281.2533
   5   2.0000     -10.333221      -281.1812
   6   2.0000     -10.332046      -281.1493
   7   2.0000     -10.287132      -279.9271
   8   2.0000     -10.286737      -279.9163
   9   2.0000     -10.275973      -279.6235
  10   2.0000     -10.273932      -279.5679
  11   2.0000     -10.273721      -279.5622
  12   2.0000     -10.273581      -279.5583
  13   2.0000      -1.207919       -32.8691
  14   2.0000      -1.090615       -29.6771
  15   2.0000      -0.966849       -26.3093
  16   2.0000      -0.940797       -25.6004
  17   2.0000      -0.914491       -24.8846
  18   2.0000      -0.868760       -23.6402
  19   2.0000      -0.829447       -22.5704
  20   2.0000      -0.821161       -22.3449
  21   2.0000      -0.819667       -22.3043
  22   2.0000      -0.798444       -21.7268
  23   2.0000      -0.742324       -20.1997
  24   2.0000      -0.715741       -19.4763
  25   2.0000      -0.701591       -19.0913
  26   2.0000      -0.647899       -17.6302
  27   2.0000      -0.631817       -17.1926
  28   2.0000      -0.605964       -16.4891
  29   2.0000      -0.602130       -16.3848
  30   2.0000      -0.575575       -15.6622
  31   2.0000      -0.566118       -15.4049
  32   2.0000      -0.555928       -15.1276
  33   2.0000      -0.543626       -14.7928
  34   2.0000      -0.541413       -14.7326
  35   2.0000      -0.533906       -14.5283
  36   2.0000      -0.524355       -14.2684
  37   2.0000      -0.521046       -14.1784
  38   2.0000      -0.511228       -13.9112
  39   2.0000      -0.505544       -13.7565
  40   2.0000      -0.496446       -13.5090
  41   2.0000      -0.494718       -13.4620
  42   2.0000      -0.488210       -13.2849
  43   2.0000      -0.485780       -13.2188
  44   2.0000      -0.471289       -12.8244
  45   2.0000      -0.461573       -12.5600
  46   2.0000      -0.456668       -12.4266
  47   2.0000      -0.449234       -12.2243
  48   2.0000      -0.405808       -11.0426
  49   2.0000      -0.348278        -9.4771
  50   0.0000       0.064950         1.7674
  51   0.0000       0.103988         2.8297
  52   0.0000       0.131387         3.5752
  53   0.0000       0.144481         3.9315
  54   0.0000       0.149801         4.0763

MULLIKEN ATOMIC CHARGES
-----------------------
   0 N :   -0.190804
   1 C :    0.207318
   2 N :   -0.195062
   3 H :    0.128293
   4 C :   -0.092088
   5 C :   -0.089676
   6 C :   -0.051228
   7 C :   -0.045290
   8 C :   -0.011845
   9 H :    0.071809
  10 C :    0.000193
  11 C :   -0.038301
  12 C :    0.006491
  13 H :    0.072001
  14 C :    0.078238
  15 C :    0.074833
  16 H :    0.061889
  17 H :    0.043624
  18 H :    0.056575
  19 H :    0.060969
  20 H :    0.053559
  21 H :    0.045514
  22 H :    0.062842
  23 H :    0.056896
  24 H :    0.066366
  25 H :    0.061533
  26 H :    0.047486
  27 H :    0.051034
  28 H :    0.082253
  29 H :    0.064387
  30 H :    0.055218
  31 H :    0.055698
  32 H :    0.080806
  33 H :    0.068469
Sum of atomic charges:    1.0000000

LOEWDIN ATOMIC CHARGES
----------------------
   0 N :    0.092813
   1 C :    0.116581
   2 N :    0.093437
   3 H :    0.065044
   4 C :   -0.003800
   5 C :   -0.006637
   6 C :    0.042721
   7 C :    0.041852
   8 C :   -0.055413
   9 H :    0.049389
  10 C :   -0.054413
  11 C :   -0.055472
  12 C :   -0.052713
  13 H :    0.045898
  14 C :   -0.051608
  15 C :   -0.051200
  16 H :    0.046245
  17 H :    0.033376
  18 H :    0.038625
  19 H :    0.045572
  20 H :    0.037632
  21 H :    0.032999
  22 H :    0.039412
  23 H :    0.036369
  24 H :    0.048185
  25 H :    0.044393
  26 H :    0.035729
  27 H :    0.034964
  28 H :    0.051993
  29 H :    0.047412
  30 H :    0.052950
  31 H :    0.052956
  32 H :    0.053931
  33 H :    0.050774

  Mayer bond orders larger than 0.100000
B(  0-N ,  1-C ) :   1.3546 B(  0-N ,  5-C ) :   1.1546 B(  0-N ,  6-C ) :   0.8593
B(  1-C ,  2-N ) :   1.3461 B(  1-C ,  3-H ) :   0.9664 B(  2-N ,  4-C ) :   1.1647
B(  2-N ,  7-C ) :   0.8543 B(  4-C ,  5-C ) :   1.6244 B(  4-C , 14-C ) :   1.0917
B(  5-C , 15-C ) :   1.0908 B(  6-C ,  8-C ) :   1.0703 B(  6-C ,  9-H ) :   0.9356
B(  6-C , 10-C ) :   1.0724 B(  7-C , 11-C ) :   1.0742 B(  7-C , 12-C ) :   1.0692
B(  7-C , 13-H ) :   0.9353 B(  8-C , 16-H ) :   0.9660 B(  8-C , 17-H ) :   0.9631
B(  8-C , 18-H ) :   0.9662 B( 10-C , 19-H ) :   0.9674 B( 10-C , 20-H ) :   0.9649
B( 10-C , 21-H ) :   0.9611 B( 11-C , 22-H ) :   0.9680 B( 11-C , 23-H ) :   0.9613
B( 11-C , 24-H ) :   0.9645 B( 12-C , 25-H ) :   0.9709 B( 12-C , 26-H ) :   0.9615
B( 12-C , 27-H ) :   0.9632 B( 14-C , 31-H ) :   0.9393 B( 14-C , 32-H ) :   0.9463
B( 14-C , 33-H ) :   0.9442 B( 15-C , 28-H ) :   0.9461 B( 15-C , 29-H ) :   0.9465
B( 15-C , 30-H ) :   0.9383

Dispersion correction           -0.005609075
FINAL SINGLE POINT ENERGY      -540.703404225221

DIPOLE MOMENT
-------------
                                X             Y             Z
Electronic contribution:      0.97773      -0.01865      -0.73422
Nuclear contribution   :     -0.78303      -0.38703       0.60487
                        -----------------------------------------
Total Dipole Moment    :      0.19469      -0.40568      -0.12935
                        -----------------------------------------
Magnitude (a.u.)       :      0.46820
Magnitude (Debye)      :      1.19008

Dispersion correction in the Hessian             ... Starting D4

VIBRATIONAL FREQUENCIES
-----------------------

Scaling factor for frequencies =  1.000000000  (already applied!)

   0:         0.00 cm**-1
   1:         0.00 cm**-1
   2:         0.00 cm**-1
   3:         0.00 cm**-1
   4:         0.00 cm**-1
   5:         0.00 cm**-1
   6:        48.38 cm**-1
   7:        55.46 cm**-1
   8:        98.10 cm**-1
   9:       101.50 cm**-1
  10:       107.97 cm**-1
  11:       149.08 cm**-1
  12:       158.21 cm**-1
  13:       204.75 cm**-1
  14:       221.89 cm**-1
  15:       233.30 cm**-1
  16:       241.96 cm**-1
  17:       265.05 cm**-1
  18:       281.50 cm**-1
  19:       287.21 cm**-1
  20:       292.65 cm**-1
  21:       318.06 cm**-1
  22:       336.23 cm**-1
  23:       388.35 cm**-1
  24:       410.49 cm**-1
  25:       468.85 cm**-1
  26:       486.10 cm**-1
  27:       541.34 cm**-1
  28:       581.97 cm**-1
  29:       648.36 cm**-1
  30:       674.89 cm**-1
  31:       714.20 cm**-1
  32:       751.21 cm**-1
  33:       789.71 cm**-1
  34:       873.88 cm**-1
  35:       915.02 cm**-1
  36:       930.62 cm**-1
  37:       937.06 cm**-1
  38:       940.88 cm**-1
  39:       960.90 cm**-1
  40:       966.09 cm**-1
  41:       975.94 cm**-1
  42:      1039.28 cm**-1
  43:      1050.52 cm**-1
  44:      1066.39 cm**-1
  45:      1095.82 cm**-1
  46:      1127.36 cm**-1
  47:      1170.82 cm**-1
  48:      1174.23 cm**-1
  49:      1176.73 cm**-1
  50:      1187.43 cm**-1
  51:      1215.98 cm**-1
  52:      1237.14 cm**-1
  53:      1269.42 cm**-1
  54:      1343.93 cm**-1
  55:      1350.40 cm**-1
  56:      1351.64 cm**-1
  57:      1375.19 cm**-1
  58:      1393.21 cm**-1
  59:      1400.38 cm**-1
  60:      1401.94 cm**-1
  61:      1402.86 cm**-1
  62:      1407.32 cm**-1
  63:      1418.43 cm**-1
  64:      1430.36 cm**-1
  65:      1436.79 cm**-1
  66:      1441.75 cm**-1
  67:      1443.40 cm**-1
  68:      1446.84 cm**-1
  69:      1447.56 cm**-1
  70:      1451.84 cm**-1
  71:      1454.72 cm**-1
  72:      1460.76 cm**-1
  73:      1464.27 cm**-1
  74:      1465.92 cm**-1
  75:      1470.87 cm**-1
  76:      1476.35 cm**-1
  77:      1518.92 cm**-1
  78:      1528.21 cm**-1
  79:      1654.48 cm**-1
  80:      1724.11 cm**-1
  81:      3071.39 cm**-1
  82:      3074.96 cm**-1
  83:      3078.78 cm**-1
  84:      3078.85 cm**-1
  85:      3081.27 cm**-1
  86:      3090.76 cm**-1
  87:      3126.61 cm**-1
  88:      3139.93 cm**-1
  89:      3170.32 cm**-1
  90:      3175.58 cm**-1
  91:      3178.59 cm**-1
  92:      3183.55 cm**-1
  93:      3185.02 cm**-1
  94:      3186.34 cm**-1
  95:      3187.36 cm**-1
  96:      3189.64 cm**-1
  97:      3190.04 cm**-1
  98:      3193.80 cm**-1
  99:      3205.90 cm**-1
 100:      3209.68 cm**-1
 101:      3307.10 cm**-1

IR SPECTRUM
-----------

 Mode   freq       eps      Int      T**2         TX        TY        TZ
       cm**-1   L/(mol*cm) km/mol    a.u.
----------------------------------------------------------------------------
  6:     48.38   0.000093    0.47  0.000601  ( 0.000330  0.006764  0.023571)
  7:     55.46   0.000010    0.05  0.000054  (-0.003604 -0.001461 -0.006213)
  8:     98.10   0.000062    0.31  0.000196  (-0.001515 -0.002360  0.013719)
  9:    101.50   0.000023    0.11  0.000069  (-0.000890  0.001475 -0.008142)
 10:    107.97   0.000029    0.15  0.000085  (-0.001730 -0.002144 -0.008810)
 11:    149.08   0.000008    0.04  0.000016  (-0.003217  0.002086 -0.001138)
 12:    158.21   0.000014    0.07  0.000027  ( 0.005155 -0.000696  0.000579)
 13:    204.75   0.000011    0.05  0.000016  (-0.001090 -0.001195 -0.003713)
 14:    221.89   0.000004    0.02  0.000005  (-0.001432 -0.001778 -0.000270)
 15:    233.30   0.000040    0.20  0.000054  ( 0.003270  0.004236  0.005023)
 16:    241.96   0.000048    0.24  0.000061  ( 0.002559  0.002548 -0.006958)
 17:    265.05   0.000362    1.83  0.000426  ( 0.003919  0.009597 -0.017842)
 18:    281.50   0.000490    2.48  0.000543  ( 0.002206  0.005774 -0.022475)
 19:    287.21   0.000983    4.97  0.001068  (-0.002840  0.002283 -0.032469)
 20:    292.65   0.001141    5.77  0.001217  ( 0.003136 -0.001472  0.034713)
 21:    318.06   0.000026    0.13  0.000025  ( 0.000335  0.003380 -0.003680)
 22:    336.23   0.000017    0.08  0.000015  (-0.000374 -0.003769  0.001000)
 23:    388.35   0.000176    0.89  0.000141  (-0.006134 -0.003026 -0.009713)
 24:    410.49   0.000310    1.57  0.000236  ( 0.014066  0.004916 -0.003696)
 25:    468.85   0.000310    1.57  0.000207  ( 0.011793  0.008209  0.000187)
 26:    486.10   0.000076    0.39  0.000049  (-0.006699 -0.001174  0.001630)
 27:    541.34   0.000647    3.27  0.000373  (-0.013929  0.013205  0.002076)
 28:    581.97   0.000825    4.17  0.000443  ( 0.018732 -0.008574  0.004270)
 29:    648.36   0.001091    5.51  0.000525  (-0.022113 -0.004611  0.003862)
 30:    674.89   0.005710   28.86  0.002640  (-0.005236 -0.006207  0.050739)
 31:    714.20   0.000023    0.12  0.000010  (-0.000902  0.002205 -0.002135)
 32:    751.21   0.000456    2.30  0.000189  (-0.003996  0.012615  0.003784)
 33:    789.71   0.000517    2.61  0.000204  ( 0.012669 -0.003068  0.005849)
 34:    873.88   0.002473   12.50  0.000883  (-0.003387  0.007244 -0.028621)
 35:    915.02   0.000180    0.91  0.000061  (-0.007070  0.002284  0.002499)
 36:    930.62   0.001052    5.32  0.000353  ( 0.008335  0.016612  0.002717)
 37:    937.06   0.000775    3.92  0.000258  (-0.000512  0.000181  0.016059)
 38:    940.88   0.000586    2.96  0.000194  ( 0.004194 -0.003679 -0.012777)
 39:    960.90   0.000194    0.98  0.000063  ( 0.002155  0.000734 -0.007607)
 40:    966.09   0.000291    1.47  0.000094  (-0.002659  0.005420  0.007588)
 41:    975.94   0.000162    0.82  0.000052  ( 0.001447  0.006966  0.001147)
 42:   1039.28   0.001493    7.54  0.000448  ( 0.004377  0.000498 -0.020710)
 43:   1050.52   0.002052   10.37  0.000610  (-0.018500 -0.016290 -0.001432)
 44:   1066.39   0.000213    1.07  0.000062  ( 0.006971 -0.003688 -0.000067)
 45:   1095.82   0.001696    8.57  0.000483  (-0.002031 -0.021351 -0.004790)
 46:   1127.36   0.007408   37.44  0.002051  (-0.042814 -0.014747  0.000326)
 47:   1170.82   0.002420   12.23  0.000645  (-0.020423 -0.000394  0.015092)
 48:   1174.23   0.000594    3.00  0.000158  (-0.008665 -0.004122 -0.008111)
 49:   1176.73   0.003045   15.39  0.000808  (-0.000426 -0.003549  0.028192)
 50:   1187.43   0.000946    4.78  0.000249  (-0.011181 -0.011029  0.001393)
 51:   1215.98   0.000838    4.24  0.000215  ( 0.006128  0.013215  0.001704)
 52:   1237.14   0.039603  200.14  0.009990  ( 0.099923  0.000345  0.002245)
 53:   1269.42   0.001953    9.87  0.000480  ( 0.018779  0.011268 -0.000648)
 54:   1343.93   0.010273   51.91  0.002385  ( 0.046201  0.014695  0.005905)
 55:   1350.40   0.003148   15.91  0.000727  (-0.026330 -0.003761 -0.004477)
 56:   1351.64   0.000053    0.27  0.000012  (-0.002313 -0.001277 -0.002296)
 57:   1375.19   0.000809    4.09  0.000184  ( 0.006508  0.011861 -0.000785)
 58:   1393.21   0.002733   13.81  0.000612  (-0.023195  0.008166 -0.002737)
 59:   1400.38   0.002885   14.58  0.000643  (-0.001423 -0.001810 -0.025249)
 60:   1401.94   0.004989   25.21  0.001110  ( 0.000169 -0.008312  0.032270)
 61:   1402.86   0.003664   18.51  0.000815  ( 0.026585  0.009452  0.004342)
 62:   1407.32   0.001232    6.23  0.000273  ( 0.010406 -0.011538 -0.005633)
 63:   1418.43   0.004374   22.10  0.000962  ( 0.007684 -0.028713 -0.008877)
 64:   1430.36   0.009366   47.33  0.002043  ( 0.027310 -0.035491 -0.006160)
 65:   1436.79   0.006035   30.50  0.001311  ( 0.003221  0.001839 -0.036015)
 66:   1441.75   0.000202    1.02  0.000044  (-0.000887  0.005431  0.003652)
 67:   1443.40   0.001992   10.07  0.000431  (-0.016715  0.003258 -0.011861)
 68:   1446.84   0.000097    0.49  0.000021  (-0.001455 -0.004205  0.001045)
 69:   1447.56   0.000211    1.07  0.000045  (-0.004489  0.001776  0.004707)
 70:   1451.84   0.000409    2.07  0.000088  ( 0.000802 -0.007860 -0.005048)
 71:   1454.72   0.002269   11.47  0.000487  (-0.019556 -0.007987 -0.006368)
 72:   1460.76   0.002351   11.88  0.000502  ( 0.014889 -0.015924  0.005190)
 73:   1464.27   0.007818   39.51  0.001666  (-0.000066 -0.038835  0.012566)
 74:   1465.92   0.000797    4.03  0.000170  ( 0.005690 -0.002031 -0.011536)
 75:   1470.87   0.001602    8.10  0.000340  (-0.007666 -0.016665  0.001834)
 76:   1476.35   0.000116    0.59  0.000025  (-0.001738 -0.001483  0.004391)
 77:   1518.92   0.001836    9.28  0.000377  ( 0.017162  0.009081  0.000383)
 78:   1528.21   0.000828    4.18  0.000169  (-0.010406 -0.007606 -0.001687)
 79:   1654.48   0.040594  205.14  0.007657  ( 0.087413  0.001671  0.003580)
 80:   1724.11   0.006205   31.36  0.001123  (-0.000356  0.032840  0.006669)
 81:   3071.39   0.002822   14.26  0.000287  (-0.005048  0.000487 -0.016155)
 82:   3074.96   0.001817    9.18  0.000184  (-0.001430  0.012519  0.005058)
 83:   3078.78   0.002987   15.09  0.000303  (-0.001664  0.003699 -0.016920)
 84:   3078.85   0.002251   11.38  0.000228  (-0.012335 -0.007819 -0.003860)
 85:   3081.27   0.001069    5.40  0.000108  ( 0.007425 -0.000370 -0.007283)
 86:   3090.76   0.003044   15.38  0.000307  ( 0.015305 -0.008147 -0.002600)
 87:   3126.61   0.001036    5.24  0.000103  ( 0.000786 -0.010134 -0.000351)
 88:   3139.93   0.000530    2.68  0.000053  ( 0.004568  0.004129 -0.003846)
 89:   3170.32   0.000609    3.08  0.000060  ( 0.001329 -0.000155  0.007629)
 90:   3175.58   0.001171    5.92  0.000115  (-0.003037 -0.007542 -0.006997)
 91:   3178.59   0.005402   27.30  0.000530  ( 0.009478  0.019199 -0.008481)
 92:   3183.55   0.000873    4.41  0.000086  (-0.003245  0.001807  0.008471)
 93:   3185.02   0.001747    8.83  0.000171  (-0.004259 -0.002107 -0.012189)
 94:   3186.34   0.002775   14.03  0.000272  (-0.016383 -0.000846  0.001648)
 95:   3187.36   0.001894    9.57  0.000185  ( 0.007964 -0.005491 -0.009582)
 96:   3189.64   0.002787   14.09  0.000273  ( 0.015901 -0.003020  0.003272)
 97:   3190.04   0.004130   20.87  0.000404  (-0.000386  0.020095 -0.000100)
 98:   3193.80   0.001849    9.34  0.000181  (-0.002841  0.013114 -0.000771)
 99:   3205.90   0.000791    4.00  0.000077  ( 0.007847 -0.003876  0.000619)
100:   3209.68   0.000429    2.17  0.000042  ( 0.003608  0.005176  0.001367)
101:   3307.10   0.009947   50.27  0.000939  (-0.003438  0.030021  0.005048)

--------------------------
THERMOCHEMISTRY AT 298.15K
--------------------------

Temperature         ... 298.15 K
Pressure            ... 1.00 atm
Total Mass          ... 181.30 AMU

Throughout the following assumptions are being made:
  (1) The electronic state is orbitally nondegenerate
  (2) There are no thermally accessible electronically excited states
  (3) Hindered rotations indicated by low frequency modes are not
      treated as such but are treated as vibrations and this may
      cause some error
  (4) All equations used are the standard statistical mechanics
      equations for an ideal gas
  (5) All vibrations are strictly harmonic

freq.      48.38  E(vib)   ...       0.53
freq.      55.46  E(vib)   ...       0.52
freq.      98.10  E(vib)   ...       0.46
freq.     101.50  E(vib)   ...       0.46
freq.     107.97  E(vib)   ...       0.45
freq.     149.08  E(vib)   ...       0.40
freq.     158.21  E(vib)   ...       0.39
freq.     204.75  E(vib)   ...       0.35
freq.     221.89  E(vib)   ...       0.33
freq.     233.30  E(vib)   ...       0.32
freq.     241.96  E(vib)   ...       0.31
freq.     265.05  E(vib)   ...       0.29
freq.     281.50  E(vib)   ...       0.28
freq.     287.21  E(vib)   ...       0.27
freq.     292.65  E(vib)   ...       0.27
freq.     318.06  E(vib)   ...       0.25
freq.     336.23  E(vib)   ...       0.24
freq.     388.35  E(vib)   ...       0.20
freq.     410.49  E(vib)   ...       0.19
freq.     468.85  E(vib)   ...       0.16
freq.     486.10  E(vib)   ...       0.15
freq.     541.34  E(vib)   ...       0.12
freq.     581.97  E(vib)   ...       0.11
freq.     648.36  E(vib)   ...       0.08
freq.     674.89  E(vib)   ...       0.08
freq.     714.20  E(vib)   ...       0.07
freq.     751.21  E(vib)   ...       0.06
freq.     789.71  E(vib)   ...       0.05
freq.     873.88  E(vib)   ...       0.04
freq.     915.02  E(vib)   ...       0.03
freq.     930.62  E(vib)   ...       0.03
freq.     937.06  E(vib)   ...       0.03
freq.     940.88  E(vib)   ...       0.03
freq.     960.90  E(vib)   ...       0.03
freq.     966.09  E(vib)   ...       0.03
freq.     975.94  E(vib)   ...       0.03
freq.    1039.28  E(vib)   ...       0.02
freq.    1050.52  E(vib)   ...       0.02
freq.    1066.39  E(vib)   ...       0.02
freq.    1095.82  E(vib)   ...       0.02
freq.    1127.36  E(vib)   ...       0.01
freq.    1170.82  E(vib)   ...       0.01
freq.    1174.23  E(vib)   ...       0.01
freq.    1176.73  E(vib)   ...       0.01
freq.    1187.43  E(vib)   ...       0.01
freq.    1215.98  E(vib)   ...       0.01
freq.    1237.14  E(vib)   ...       0.01
freq.    1269.42  E(vib)   ...       0.01
freq.    1343.93  E(vib)   ...       0.01
freq.    1350.40  E(vib)   ...       0.01
freq.    1351.64  E(vib)   ...       0.01
freq.    1375.19  E(vib)   ...       0.01
freq.    1393.21  E(vib)   ...       0.00
freq.    1400.38  E(vib)   ...       0.00
freq.    1401.94  E(vib)   ...       0.00
freq.    1402.86  E(vib)   ...       0.00
freq.    1407.32  E(vib)   ...       0.00
freq.    1418.43  E(vib)   ...       0.00
freq.    1430.36  E(vib)   ...       0.00
freq.    1436.79  E(vib)   ...       0.00
freq.    1441.75  E(vib)   ...       0.00
freq.    1443.40  E(vib)   ...       0.00
freq.    1446.84  E(vib)   ...       0.00
freq.    1447.56  E(vib)   ...       0.00
freq.    1451.84  E(vib)   ...       0.00
freq.    1454.72  E(vib)   ...       0.00
freq.    1460.76  E(vib)   ...       0.00
freq.    1464.27  E(vib)   ...       0.00
freq.    1465.92  E(vib)   ...       0.00
freq.    1470.87  E(vib)   ...       0.00
freq.    1476.35  E(vib)   ...       0.00
freq.    1518.92  E(vib)   ...       0.00
freq.    1528.21  E(vib)   ...       0.00
freq.    1654.48  E(vib)   ...       0.00
freq.    1724.11  E(vib)   ...       0.00
freq.    3071.39  E(vib)   ...       0.00
freq.    3074.96  E(vib)   ...       0.00
freq.    3078.78  E(vib)   ...       0.00
freq.    3078.85  E(vib)   ...       0.00
freq.    3081.27  E(vib)   ...       0.00
freq.    3090.76  E(vib)   ...       0.00
freq.    3126.61  E(vib)   ...       0.00
freq.    3139.93  E(vib)   ...       0.00
freq.    3170.32  E(vib)   ...       0.00
freq.    3175.58  E(vib)   ...       0.00
freq.    3178.59  E(vib)   ...       0.00
freq.    3183.55  E(vib)   ...       0.00
freq.    3185.02  E(vib)   ...       0.00
freq.    3186.34  E(vib)   ...       0.00
freq.    3187.36  E(vib)   ...       0.00
freq.    3189.64  E(vib)   ...       0.00
freq.    3190.04  E(vib)   ...       0.00
freq.    3193.80  E(vib)   ...       0.00
freq.    3205.90  E(vib)   ...       0.00
freq.    3209.68  E(vib)   ...       0.00
freq.    3307.10  E(vib)   ...       0.00

------------
INNER ENERGY
------------

The inner energy is: U= E(el) + E(ZPE) + E(vib) + E(rot) + E(trans)
    E(el)   - is the total energy from the electronic structure calculation
              = E(kin-el) + E(nuc-el) + E(el-el) + E(nuc-nuc)
    E(ZPE)  - the the zero temperature vibrational energy from the frequency calculation
    E(vib)  - the the finite temperature correction to E(ZPE) due to population
              of excited vibrational states
    E(rot)  - is the rotational thermal energy
    E(trans)- is the translational thermal energy

Summary of contributions to the inner energy U:
Electronic energy                ...   -540.70340423 Eh
Zero point energy                ...      0.31128009 Eh     195.33 kcal/mol
Thermal vibrational correction   ...      0.01257608 Eh       7.89 kcal/mol
Thermal rotational correction    ...      0.00141627 Eh       0.89 kcal/mol
Thermal translational correction ...      0.00141627 Eh       0.89 kcal/mol
-----------------------------------------------------------------------
Total thermal energy                   -540.37671551 Eh

Summary of corrections to the electronic energy:
(perhaps to be used in another calculation)
Total thermal correction                  0.01540862 Eh       9.67 kcal/mol
Non-thermal (ZPE) correction              0.31128009 Eh     195.33 kcal/mol
-----------------------------------------------------------------------
Total correction                          0.32668871 Eh     205.00 kcal/mol

--------
ENTHALPY
--------

The enthalpy is H = U + kB*T
                kB is Boltzmann's constant
Total free energy                 ...   -540.37671551 Eh
Thermal Enthalpy correction       ...      0.00094421 Eh       0.59 kcal/mol
-----------------------------------------------------------------------
Total Enthalpy                    ...   -540.37577130 Eh

Note: Only C1 symmetry has been detected, increase convergence thresholds
      if your molecule has a higher symmetry. Symmetry factor of 1.0 is
      used for the rotational entropy correction.

Rotational constants in cm-1:     0.041358     0.017477     0.014408

                             ****ORCA TERMINATED NORMALLY****
TOTAL RUN TIME: 0 days 3 hours 55 minutes 25 seconds 869 msec
