                         Program Version 5.0.4 -  RELEASE  -
|  1> # ORCA 5.0.4 - /users/bwb16179/postgrad/2024_03/DFT_Crest_Conformers/Opt/prot/6_prot_aq_1.inp # write input file
|  2> # Basic Mode
|  3> #
|  4> ! Opt Freq wB97X Def2-SVP D4 SlowConv TightSCF Defgrid2 Def2/J RIJCOSX CPCM(Water)
|  5>
|  6>
|  7>
|  8> %maxcore 4500
|  9>
| 10> %geom
| 11> Maxiter 150
| 12> END
| 13>
| 14> * xyzfile 1 1 6_prot_aq_1.xyz
| 15>
| 16>                          ****END OF INPUT****
 Total Charge           Charge          ....    1
 Multiplicity           Mult            ....    1
 Number of Electrons    NEL             ....  100
Dispersion correction           -0.005641800
FINAL SINGLE POINT ENERGY      -540.701770739559
Dispersion correction            ... Starting D4
Dispersion correction           -0.005613311
FINAL SINGLE POINT ENERGY      -540.705311089240
Dispersion correction            ... Starting D4
Dispersion correction           -0.005609401
FINAL SINGLE POINT ENERGY      -540.705599278012
Dispersion correction            ... Starting D4
FINAL SINGLE POINT ENERGY      -540.705843556966
FINAL SINGLE POINT ENERGY      -540.705903895509
FINAL SINGLE POINT ENERGY      -540.705949817334
Dispersion correction           -0.005611962
FINAL SINGLE POINT ENERGY      -540.705957390158
Dispersion correction            ... Starting D4
Dispersion correction           -0.005611578
FINAL SINGLE POINT ENERGY      -540.705957228035
Dispersion correction            ... Starting D4
                    ***********************HURRAY********************

CARTESIAN COORDINATES (ANGSTROEM)
---------------------------------
  N     -1.077344   -0.076227   -0.110491
  C      0.000048   -0.847580    0.000394
  N      1.077248   -0.075843    0.110457
  H      0.000196   -1.936295    0.001006
  C      0.681445    1.253251    0.066067
  C     -0.681848    1.253024   -0.067543
  C     -2.475791   -0.552238   -0.174849
  C      2.475790   -0.551453    0.175557
  C     -2.580888   -1.824249   -1.002477
  H     -3.021125    0.248753   -0.694783
  C     -3.034326   -0.713284    1.233885
  C      3.034592   -0.713900   -1.232896
  C      2.581056   -1.822470    1.004697
  H      3.020856    0.250277    0.694631
  C      1.644169    2.386617    0.161534
  C     -1.644761    2.386090   -0.164682
  H     -2.124362   -1.694419   -1.994855
  H     -3.643362   -2.070086   -1.140097
  H     -2.105312   -2.679933   -0.497706
  H     -2.488455   -1.501449    1.776367
  H     -4.094685   -0.999683    1.179096
  H     -2.959108    0.224057    1.805203
  H      2.959234    0.222844   -1.805187
  H      2.489035   -1.502782   -1.774650
  H      4.095013   -0.999979   -1.177603
  H      3.643562   -2.067917    1.142768
  H      2.105748   -2.678844    0.500846
  H      2.124343   -1.691585    1.996850
  H     -1.105620    3.338666   -0.087559
  H     -2.391160    2.349222    0.643291
  H     -2.179693    2.373987   -1.126778
  H      2.179608    2.375666    1.123359
  H      1.104804    3.339004    0.083663
  H      2.390155    2.348995   -0.646797

 Multiplicity           Mult            ....    1
 Number of Electrons    NEL             ....  100
 Basis Dimension        Dim             ....  287

ORBITAL ENERGIES
----------------

  NO   OCC          E(Eh)            E(eV)
   0   2.0000     -14.501341      -394.6015
   1   2.0000     -14.501318      -394.6009
   2   2.0000     -10.376582      -282.3611
   3   2.0000     -10.335409      -281.2408
   4   2.0000     -10.335380      -281.2400
   5   2.0000     -10.331722      -281.1404
   6   2.0000     -10.331228      -281.1270
   7   2.0000     -10.286881      -279.9203
   8   2.0000     -10.286822      -279.9187
   9   2.0000     -10.275645      -279.6145
  10   2.0000     -10.275638      -279.6143
  11   2.0000     -10.273798      -279.5642
  12   2.0000     -10.273797      -279.5642
  13   2.0000      -1.207882       -32.8681
  14   2.0000      -1.090904       -29.6850
  15   2.0000      -0.967267       -26.3207
  16   2.0000      -0.939586       -25.5674
  17   2.0000      -0.915540       -24.9131
  18   2.0000      -0.866638       -23.5824
  19   2.0000      -0.829381       -22.5686
  20   2.0000      -0.821623       -22.3575
  21   2.0000      -0.817634       -22.2490
  22   2.0000      -0.804452       -21.8902
  23   2.0000      -0.732357       -19.9284
  24   2.0000      -0.727447       -19.7948
  25   2.0000      -0.694204       -18.8903
  26   2.0000      -0.649357       -17.6699
  27   2.0000      -0.633042       -17.2259
  28   2.0000      -0.612425       -16.6649
  29   2.0000      -0.595251       -16.1976
  30   2.0000      -0.574874       -15.6431
  31   2.0000      -0.572129       -15.5684
  32   2.0000      -0.552485       -15.0339
  33   2.0000      -0.542350       -14.7581
  34   2.0000      -0.541540       -14.7360
  35   2.0000      -0.528150       -14.3717
  36   2.0000      -0.523114       -14.2346
  37   2.0000      -0.517924       -14.0934
  38   2.0000      -0.514827       -14.0091
  39   2.0000      -0.504891       -13.7388
  40   2.0000      -0.500071       -13.6076
  41   2.0000      -0.494279       -13.4500
  42   2.0000      -0.489651       -13.3241
  43   2.0000      -0.482563       -13.1312
  44   2.0000      -0.471904       -12.8412
  45   2.0000      -0.461167       -12.5490
  46   2.0000      -0.457409       -12.4467
  47   2.0000      -0.454908       -12.3787
  48   2.0000      -0.404505       -11.0071
  49   2.0000      -0.347661        -9.4603
  50   0.0000       0.063113         1.7174
  51   0.0000       0.107633         2.9288
  52   0.0000       0.130088         3.5399
  53   0.0000       0.144660         3.9364
  54   0.0000       0.146829         3.9954

MULLIKEN ATOMIC CHARGES
-----------------------
   0 N :   -0.194734
   1 C :    0.211545
   2 N :   -0.194728
   3 H :    0.121606
   4 C :   -0.092097
   5 C :   -0.092105
   6 C :   -0.048757
   7 C :   -0.048757
   8 C :   -0.034660
   9 H :    0.071378
  10 C :    0.006893
  11 C :    0.006901
  12 C :   -0.034655
  13 H :    0.071372
  14 C :    0.076470
  15 C :    0.076464
  16 H :    0.061801
  17 H :    0.065736
  18 H :    0.055825
  19 H :    0.047257
  20 H :    0.061093
  21 H :    0.051711
  22 H :    0.051705
  23 H :    0.047259
  24 H :    0.061090
  25 H :    0.065736
  26 H :    0.055825
  27 H :    0.061802
  28 H :    0.055682
  29 H :    0.069129
  30 H :    0.080698
  31 H :    0.080689
  32 H :    0.055681
  33 H :    0.069142
Sum of atomic charges:    1.0000000

LOEWDIN ATOMIC CHARGES
----------------------
   0 N :    0.094550
   1 C :    0.116169
   2 N :    0.094560
   3 H :    0.061817
   4 C :   -0.006191
   5 C :   -0.006194
   6 C :    0.041175
   7 C :    0.041172
   8 C :   -0.055316
   9 H :    0.045854
  10 C :   -0.052854
  11 C :   -0.052853
  12 C :   -0.055317
  13 H :    0.045855
  14 C :   -0.051751
  15 C :   -0.051751
  16 H :    0.039233
  17 H :    0.047749
  18 H :    0.036085
  19 H :    0.035410
  20 H :    0.044154
  21 H :    0.035400
  22 H :    0.035401
  23 H :    0.035409
  24 H :    0.044154
  25 H :    0.047748
  26 H :    0.036085
  27 H :    0.039234
  28 H :    0.053180
  29 H :    0.050658
  30 H :    0.053669
  31 H :    0.053664
  32 H :    0.053179
  33 H :    0.050664

  Mayer bond orders larger than 0.100000
B(  0-N ,  1-C ) :   1.3469 B(  0-N ,  5-C ) :   1.1649 B(  0-N ,  6-C ) :   0.8545
B(  1-C ,  2-N ) :   1.3469 B(  1-C ,  3-H ) :   0.9680 B(  2-N ,  4-C ) :   1.1649
B(  2-N ,  7-C ) :   0.8545 B(  4-C ,  5-C ) :   1.6200 B(  4-C , 14-C ) :   1.0912
B(  5-C , 15-C ) :   1.0912 B(  6-C ,  8-C ) :   1.0738 B(  6-C ,  9-H ) :   0.9350
B(  6-C , 10-C ) :   1.0696 B(  7-C , 11-C ) :   1.0696 B(  7-C , 12-C ) :   1.0738
B(  7-C , 13-H ) :   0.9350 B(  8-C , 16-H ) :   0.9682 B(  8-C , 17-H ) :   0.9649
B(  8-C , 18-H ) :   0.9618 B( 10-C , 19-H ) :   0.9616 B( 10-C , 20-H ) :   0.9711
B( 10-C , 21-H ) :   0.9635 B( 11-C , 22-H ) :   0.9635 B( 11-C , 23-H ) :   0.9616
B( 11-C , 24-H ) :   0.9711 B( 12-C , 25-H ) :   0.9649 B( 12-C , 26-H ) :   0.9618
B( 12-C , 27-H ) :   0.9682 B( 14-C , 31-H ) :   0.9461 B( 14-C , 32-H ) :   0.9400
B( 14-C , 33-H ) :   0.9450 B( 15-C , 28-H ) :   0.9400 B( 15-C , 29-H ) :   0.9449
B( 15-C , 30-H ) :   0.9461

Dispersion correction           -0.005611567
FINAL SINGLE POINT ENERGY      -540.705957695031

DIPOLE MOMENT
-------------
                                X             Y             Z
Electronic contribution:     -0.00050       2.22600      -0.00134
Nuclear contribution   :      0.00055      -2.38053       0.00134
                        -----------------------------------------
Total Dipole Moment    :      0.00005      -0.15454       0.00000
                        -----------------------------------------
Magnitude (a.u.)       :      0.15454
Magnitude (Debye)      :      0.39280

Dispersion correction in the Hessian             ... Starting D4

VIBRATIONAL FREQUENCIES
-----------------------

Scaling factor for frequencies =  1.000000000  (already applied!)

   0:         0.00 cm**-1
   1:         0.00 cm**-1
   2:         0.00 cm**-1
   3:         0.00 cm**-1
   4:         0.00 cm**-1
   5:         0.00 cm**-1
   6:        58.48 cm**-1
   7:        60.75 cm**-1
   8:        89.60 cm**-1
   9:       104.27 cm**-1
  10:       110.77 cm**-1
  11:       143.52 cm**-1
  12:       154.08 cm**-1
  13:       212.90 cm**-1
  14:       220.05 cm**-1
  15:       258.18 cm**-1
  16:       258.57 cm**-1
  17:       282.53 cm**-1
  18:       283.78 cm**-1
  19:       287.74 cm**-1
  20:       288.30 cm**-1
  21:       316.20 cm**-1
  22:       326.41 cm**-1
  23:       380.01 cm**-1
  24:       432.56 cm**-1
  25:       463.50 cm**-1
  26:       485.06 cm**-1
  27:       549.69 cm**-1
  28:       610.29 cm**-1
  29:       618.52 cm**-1
  30:       676.10 cm**-1
  31:       712.15 cm**-1
  32:       754.05 cm**-1
  33:       801.11 cm**-1
  34:       872.23 cm**-1
  35:       915.92 cm**-1
  36:       927.81 cm**-1
  37:       946.13 cm**-1
  38:       946.43 cm**-1
  39:       966.14 cm**-1
  40:       967.21 cm**-1
  41:       974.07 cm**-1
  42:      1039.23 cm**-1
  43:      1061.14 cm**-1
  44:      1065.79 cm**-1
  45:      1098.21 cm**-1
  46:      1130.03 cm**-1
  47:      1158.22 cm**-1
  48:      1176.37 cm**-1
  49:      1176.63 cm**-1
  50:      1198.78 cm**-1
  51:      1221.91 cm**-1
  52:      1222.19 cm**-1
  53:      1251.40 cm**-1
  54:      1351.00 cm**-1
  55:      1353.95 cm**-1
  56:      1354.58 cm**-1
  57:      1378.42 cm**-1
  58:      1391.26 cm**-1
  59:      1401.18 cm**-1
  60:      1403.67 cm**-1
  61:      1404.62 cm**-1
  62:      1407.89 cm**-1
  63:      1418.69 cm**-1
  64:      1426.24 cm**-1
  65:      1435.33 cm**-1
  66:      1440.83 cm**-1
  67:      1442.40 cm**-1
  68:      1448.30 cm**-1
  69:      1448.38 cm**-1
  70:      1451.71 cm**-1
  71:      1457.53 cm**-1
  72:      1457.81 cm**-1
  73:      1463.83 cm**-1
  74:      1464.15 cm**-1
  75:      1476.32 cm**-1
  76:      1480.02 cm**-1
  77:      1516.68 cm**-1
  78:      1528.97 cm**-1
  79:      1652.44 cm**-1
  80:      1733.09 cm**-1
  81:      3070.19 cm**-1
  82:      3070.25 cm**-1
  83:      3074.24 cm**-1
  84:      3074.27 cm**-1
  85:      3077.27 cm**-1
  86:      3078.66 cm**-1
  87:      3144.16 cm**-1
  88:      3144.24 cm**-1
  89:      3170.20 cm**-1
  90:      3170.38 cm**-1
  91:      3174.72 cm**-1
  92:      3174.76 cm**-1
  93:      3178.00 cm**-1
  94:      3178.06 cm**-1
  95:      3186.25 cm**-1
  96:      3186.28 cm**-1
  97:      3189.19 cm**-1
  98:      3189.23 cm**-1
  99:      3201.73 cm**-1
 100:      3206.19 cm**-1
 101:      3309.60 cm**-1

IR SPECTRUM
-----------

 Mode   freq       eps      Int      T**2         TX        TY        TZ
       cm**-1   L/(mol*cm) km/mol    a.u.
----------------------------------------------------------------------------
  6:     58.48   0.000022    0.11  0.000116  (-0.000012  0.010792  0.000040)
  7:     60.75   0.000102    0.51  0.000523  (-0.000688  0.000002  0.022869)
  8:     89.60   0.000096    0.49  0.000336  (-0.003787 -0.000008  0.017936)
  9:    104.27   0.000000    0.00  0.000001  (-0.000017  0.000947  0.000207)
 10:    110.77   0.000073    0.37  0.000206  (-0.000738 -0.000044  0.014340)
 11:    143.52   0.000001    0.01  0.000003  ( 0.000007 -0.001727  0.000033)
 12:    154.08   0.000012    0.06  0.000025  ( 0.000014  0.004980  0.000036)
 13:    212.90   0.000003    0.01  0.000004  ( 0.000007  0.001947 -0.000036)
 14:    220.05   0.000005    0.03  0.000008  ( 0.002730 -0.000000  0.000269)
 15:    258.18   0.000019    0.10  0.000023  ( 0.003950  0.000199  0.002765)
 16:    258.57   0.000003    0.01  0.000003  ( 0.000474 -0.001665  0.000356)
 17:    282.53   0.000023    0.12  0.000025  (-0.000024  0.005024  0.000275)
 18:    283.78   0.001655    8.37  0.001820  ( 0.003305 -0.000017 -0.042536)
 19:    287.74   0.000003    0.02  0.000003  (-0.000013 -0.001816  0.000293)
 20:    288.30   0.001430    7.23  0.001548  ( 0.003827 -0.000027 -0.039162)
 21:    316.20   0.000077    0.39  0.000076  ( 0.008693  0.000015  0.000606)
 22:    326.41   0.000078    0.39  0.000074  (-0.000025  0.008612  0.000020)
 23:    380.01   0.000173    0.88  0.000142  (-0.008289 -0.000011  0.008585)
 24:    432.56   0.000110    0.56  0.000080  (-0.007914 -0.000009 -0.004125)
 25:    463.50   0.000089    0.45  0.000060  ( 0.000000  0.007720 -0.000007)
 26:    485.06   0.000001    0.00  0.000000  ( 0.000010  0.000585 -0.000009)
 27:    549.69   0.002066   10.44  0.001173  ( 0.034164  0.000008  0.002441)
 28:    610.29   0.000946    4.78  0.000484  ( 0.000038  0.021995 -0.000003)
 29:    618.52   0.000859    4.34  0.000434  (-0.019173  0.000045 -0.008121)
 30:    676.10   0.005798   29.30  0.002676  (-0.004489 -0.000034 -0.051537)
 31:    712.15   0.000019    0.09  0.000008  ( 0.000022  0.002859 -0.000012)
 32:    754.05   0.000505    2.55  0.000209  ( 0.000001 -0.014455  0.000011)
 33:    801.11   0.000202    1.02  0.000079  (-0.005197 -0.000004  0.007181)
 34:    872.23   0.002482   12.54  0.000888  (-0.005836  0.000024  0.029219)
 35:    915.92   0.000039    0.20  0.000013  (-0.000020  0.003660  0.000004)
 36:    927.81   0.000441    2.23  0.000148  (-0.011805  0.000002 -0.003021)
 37:    946.13   0.000384    1.94  0.000127  (-0.000024  0.011249 -0.000406)
 38:    946.43   0.001003    5.07  0.000331  (-0.001342 -0.000273 -0.018132)
 39:    966.14   0.000084    0.42  0.000027  ( 0.000014 -0.005195  0.000081)
 40:    967.21   0.000253    1.28  0.000082  (-0.002572 -0.000032 -0.008669)
 41:    974.07   0.000002    0.01  0.000001  ( 0.000007  0.000874 -0.000004)
 42:   1039.23   0.001495    7.55  0.000449  ( 0.000487  0.000006 -0.021179)
 43:   1061.14   0.000095    0.48  0.000028  (-0.005068  0.000002 -0.001526)
 44:   1065.79   0.000053    0.27  0.000015  (-0.000027  0.003929  0.000045)
 45:   1098.21   0.000661    3.34  0.000188  (-0.000003 -0.013704  0.000010)
 46:   1130.03   0.003217   16.26  0.000888  ( 0.029402  0.000013  0.004897)
 47:   1158.22   0.000800    4.04  0.000215  ( 0.000025 -0.014678  0.000020)
 48:   1176.37   0.000053    0.27  0.000014  (-0.000480 -0.003620 -0.000926)
 49:   1176.63   0.005318   26.88  0.001410  (-0.017671  0.000084 -0.033139)
 50:   1198.78   0.000302    1.53  0.000079  ( 0.007248 -0.000000  0.005107)
 51:   1221.91   0.001357    6.86  0.000347  (-0.000472  0.018613 -0.000018)
 52:   1222.19   0.050957  257.51  0.013011  ( 0.114044  0.000092  0.002205)
 53:   1251.40   0.000117    0.59  0.000029  ( 0.001753 -0.000010  0.005102)
 54:   1351.00   0.000459    2.32  0.000106  ( 0.000053 -0.010301 -0.000005)
 55:   1353.95   0.000031    0.16  0.000007  (-0.001675  0.000019  0.002080)
 56:   1354.58   0.000034    0.17  0.000008  (-0.000034 -0.002798  0.000016)
 57:   1378.42   0.002240   11.32  0.000507  ( 0.021771  0.000046 -0.005758)
 58:   1391.26   0.000617    3.12  0.000138  (-0.000082 -0.011767  0.000004)
 59:   1401.18   0.003751   18.96  0.000835  ( 0.023006  0.000063 -0.017497)
 60:   1403.67   0.000046    0.23  0.000010  ( 0.000129 -0.003174 -0.000438)
 61:   1404.62   0.005390   27.24  0.001198  (-0.005896 -0.000023  0.034100)
 62:   1407.89   0.002202   11.13  0.000488  (-0.000087  0.022094  0.000057)
 63:   1418.69   0.007094   35.85  0.001560  (-0.038796 -0.000061 -0.007441)
 64:   1426.24   0.013454   67.99  0.002944  ( 0.000052 -0.054257  0.000074)
 65:   1435.33   0.006080   30.73  0.001322  (-0.008686 -0.000058 -0.035305)
 66:   1440.83   0.000045    0.23  0.000010  ( 0.000120 -0.003127  0.000004)
 67:   1442.40   0.004427   22.37  0.000958  ( 0.025716 -0.000026 -0.017221)
 68:   1448.30   0.000076    0.39  0.000016  ( 0.001655 -0.000001  0.003706)
 69:   1448.38   0.000000    0.00  0.000000  ( 0.000168  0.000037  0.000241)
 70:   1451.71   0.000407    2.06  0.000088  (-0.000029 -0.009355  0.000005)
 71:   1457.53   0.003341   16.88  0.000715  (-0.026615  0.000734  0.002527)
 72:   1457.81   0.003245   16.40  0.000695  ( 0.000746  0.026344 -0.000091)
 73:   1463.83   0.003882   19.62  0.000828  ( 0.000751  0.028654  0.002466)
 74:   1464.15   0.003555   17.97  0.000758  ( 0.007987 -0.002723  0.026202)
 75:   1476.32   0.000386    1.95  0.000082  ( 0.003906  0.000011  0.008141)
 76:   1480.02   0.000518    2.62  0.000109  (-0.000004  0.010453  0.000049)
 77:   1516.68   0.000623    3.15  0.000128  ( 0.011313 -0.000013  0.000557)
 78:   1528.97   0.000392    1.98  0.000080  ( 0.000021  0.008945 -0.000012)
 79:   1652.44   0.035670  180.26  0.006736  (-0.082069 -0.000010 -0.000958)
 80:   1733.09   0.006433   32.51  0.001158  ( 0.000000 -0.034035  0.000023)
 81:   3070.19   0.005344   27.01  0.000543  ( 0.008444  0.000155 -0.021722)
 82:   3070.25   0.000209    1.06  0.000021  (-0.001639  0.000862  0.004220)
 83:   3074.24   0.000949    4.79  0.000096  ( 0.000189 -0.008077  0.005571)
 84:   3074.27   0.002704   13.67  0.000274  (-0.000098 -0.016339 -0.002739)
 85:   3077.27   0.003050   15.41  0.000309  ( 0.017584  0.000105  0.000264)
 86:   3078.66   0.001371    6.93  0.000139  ( 0.000162 -0.011787  0.000017)
 87:   3144.16   0.000555    2.80  0.000055  (-0.005275  0.001220 -0.005073)
 88:   3144.24   0.000181    0.91  0.000018  ( 0.002377  0.002662  0.002287)
 89:   3170.20   0.001283    6.48  0.000126  ( 0.002360  0.000077 -0.010988)
 90:   3170.38   0.000023    0.12  0.000002  ( 0.000199 -0.001192 -0.000896)
 91:   3174.72   0.000874    4.42  0.000086  (-0.000809 -0.008943  0.002305)
 92:   3174.76   0.001119    5.65  0.000110  ( 0.003441 -0.002118 -0.009677)
 93:   3178.00   0.004776   24.14  0.000469  (-0.015191 -0.004158 -0.014863)
 94:   3178.06   0.006292   31.80  0.000618  (-0.002566  0.024594 -0.002519)
 95:   3186.25   0.002381   12.03  0.000233  (-0.010104  0.005613 -0.009979)
 96:   3186.28   0.001785    9.02  0.000175  (-0.007872 -0.007186 -0.007827)
 97:   3189.19   0.005188   26.22  0.000508  (-0.021921  0.000347  0.005199)
 98:   3189.23   0.000238    1.20  0.000023  ( 0.001795  0.004465 -0.000407)
 99:   3201.73   0.000564    2.85  0.000055  ( 0.007412 -0.000005  0.000144)
100:   3206.19   0.000787    3.98  0.000077  ( 0.000007  0.008754 -0.000006)
101:   3309.60   0.010355   52.33  0.000976  (-0.000004  0.031247 -0.000018)

--------------------------
THERMOCHEMISTRY AT 298.15K
--------------------------

Temperature         ... 298.15 K
Pressure            ... 1.00 atm
Total Mass          ... 181.30 AMU

Throughout the following assumptions are being made:
  (1) The electronic state is orbitally nondegenerate
  (2) There are no thermally accessible electronically excited states
  (3) Hindered rotations indicated by low frequency modes are not
      treated as such but are treated as vibrations and this may
      cause some error
  (4) All equations used are the standard statistical mechanics
      equations for an ideal gas
  (5) All vibrations are strictly harmonic

freq.      58.48  E(vib)   ...       0.51
freq.      60.75  E(vib)   ...       0.51
freq.      89.60  E(vib)   ...       0.47
freq.     104.27  E(vib)   ...       0.46
freq.     110.77  E(vib)   ...       0.45
freq.     143.52  E(vib)   ...       0.41
freq.     154.08  E(vib)   ...       0.40
freq.     212.90  E(vib)   ...       0.34
freq.     220.05  E(vib)   ...       0.33
freq.     258.18  E(vib)   ...       0.30
freq.     258.57  E(vib)   ...       0.30
freq.     282.53  E(vib)   ...       0.28
freq.     283.78  E(vib)   ...       0.28
freq.     287.74  E(vib)   ...       0.27
freq.     288.30  E(vib)   ...       0.27
freq.     316.20  E(vib)   ...       0.25
freq.     326.41  E(vib)   ...       0.24
freq.     380.01  E(vib)   ...       0.21
freq.     432.56  E(vib)   ...       0.18
freq.     463.50  E(vib)   ...       0.16
freq.     485.06  E(vib)   ...       0.15
freq.     549.69  E(vib)   ...       0.12
freq.     610.29  E(vib)   ...       0.10
freq.     618.52  E(vib)   ...       0.09
freq.     676.10  E(vib)   ...       0.08
freq.     712.15  E(vib)   ...       0.07
freq.     754.05  E(vib)   ...       0.06
freq.     801.11  E(vib)   ...       0.05
freq.     872.23  E(vib)   ...       0.04
freq.     915.92  E(vib)   ...       0.03
freq.     927.81  E(vib)   ...       0.03
freq.     946.13  E(vib)   ...       0.03
freq.     946.43  E(vib)   ...       0.03
freq.     966.14  E(vib)   ...       0.03
freq.     967.21  E(vib)   ...       0.03
freq.     974.07  E(vib)   ...       0.03
freq.    1039.23  E(vib)   ...       0.02
freq.    1061.14  E(vib)   ...       0.02
freq.    1065.79  E(vib)   ...       0.02
freq.    1098.21  E(vib)   ...       0.02
freq.    1130.03  E(vib)   ...       0.01
freq.    1158.22  E(vib)   ...       0.01
freq.    1176.37  E(vib)   ...       0.01
freq.    1176.63  E(vib)   ...       0.01
freq.    1198.78  E(vib)   ...       0.01
freq.    1221.91  E(vib)   ...       0.01
freq.    1222.19  E(vib)   ...       0.01
freq.    1251.40  E(vib)   ...       0.01
freq.    1351.00  E(vib)   ...       0.01
freq.    1353.95  E(vib)   ...       0.01
freq.    1354.58  E(vib)   ...       0.01
freq.    1378.42  E(vib)   ...       0.01
freq.    1391.26  E(vib)   ...       0.00
freq.    1401.18  E(vib)   ...       0.00
freq.    1403.67  E(vib)   ...       0.00
freq.    1404.62  E(vib)   ...       0.00
freq.    1407.89  E(vib)   ...       0.00
freq.    1418.69  E(vib)   ...       0.00
freq.    1426.24  E(vib)   ...       0.00
freq.    1435.33  E(vib)   ...       0.00
freq.    1440.83  E(vib)   ...       0.00
freq.    1442.40  E(vib)   ...       0.00
freq.    1448.30  E(vib)   ...       0.00
freq.    1448.38  E(vib)   ...       0.00
freq.    1451.71  E(vib)   ...       0.00
freq.    1457.53  E(vib)   ...       0.00
freq.    1457.81  E(vib)   ...       0.00
freq.    1463.83  E(vib)   ...       0.00
freq.    1464.15  E(vib)   ...       0.00
freq.    1476.32  E(vib)   ...       0.00
freq.    1480.02  E(vib)   ...       0.00
freq.    1516.68  E(vib)   ...       0.00
freq.    1528.97  E(vib)   ...       0.00
freq.    1652.44  E(vib)   ...       0.00
freq.    1733.09  E(vib)   ...       0.00
freq.    3070.19  E(vib)   ...       0.00
freq.    3070.25  E(vib)   ...       0.00
freq.    3074.24  E(vib)   ...       0.00
freq.    3074.27  E(vib)   ...       0.00
freq.    3077.27  E(vib)   ...       0.00
freq.    3078.66  E(vib)   ...       0.00
freq.    3144.16  E(vib)   ...       0.00
freq.    3144.24  E(vib)   ...       0.00
freq.    3170.20  E(vib)   ...       0.00
freq.    3170.38  E(vib)   ...       0.00
freq.    3174.72  E(vib)   ...       0.00
freq.    3174.76  E(vib)   ...       0.00
freq.    3178.00  E(vib)   ...       0.00
freq.    3178.06  E(vib)   ...       0.00
freq.    3186.25  E(vib)   ...       0.00
freq.    3186.28  E(vib)   ...       0.00
freq.    3189.19  E(vib)   ...       0.00
freq.    3189.23  E(vib)   ...       0.00
freq.    3201.73  E(vib)   ...       0.00
freq.    3206.19  E(vib)   ...       0.00
freq.    3309.60  E(vib)   ...       0.00

------------
INNER ENERGY
------------

The inner energy is: U= E(el) + E(ZPE) + E(vib) + E(rot) + E(trans)
    E(el)   - is the total energy from the electronic structure calculation
              = E(kin-el) + E(nuc-el) + E(el-el) + E(nuc-nuc)
    E(ZPE)  - the the zero temperature vibrational energy from the frequency calculation
    E(vib)  - the the finite temperature correction to E(ZPE) due to population
              of excited vibrational states
    E(rot)  - is the rotational thermal energy
    E(trans)- is the translational thermal energy

Summary of contributions to the inner energy U:
Electronic energy                ...   -540.70595770 Eh
Zero point energy                ...      0.31140776 Eh     195.41 kcal/mol
Thermal vibrational correction   ...      0.01247020 Eh       7.83 kcal/mol
Thermal rotational correction    ...      0.00141627 Eh       0.89 kcal/mol
Thermal translational correction ...      0.00141627 Eh       0.89 kcal/mol
-----------------------------------------------------------------------
Total thermal energy                   -540.37924719 Eh

Summary of corrections to the electronic energy:
(perhaps to be used in another calculation)
Total thermal correction                  0.01530274 Eh       9.60 kcal/mol
Non-thermal (ZPE) correction              0.31140776 Eh     195.41 kcal/mol
-----------------------------------------------------------------------
Total correction                          0.32671051 Eh     205.01 kcal/mol

--------
ENTHALPY
--------

The enthalpy is H = U + kB*T
                kB is Boltzmann's constant
Total free energy                 ...   -540.37924719 Eh
Thermal Enthalpy correction       ...      0.00094421 Eh       0.59 kcal/mol
-----------------------------------------------------------------------
Total Enthalpy                    ...   -540.37830298 Eh

Note: Only C1 symmetry has been detected, increase convergence thresholds
      if your molecule has a higher symmetry. Symmetry factor of 1.0 is
      used for the rotational entropy correction.

Rotational constants in cm-1:     0.036584     0.019121     0.014594

                             ****ORCA TERMINATED NORMALLY****
TOTAL RUN TIME: 0 days 2 hours 6 minutes 46 seconds 965 msec
