                         Program Version 5.0.4 -  RELEASE  -
|  1> # ORCA 5.0.4 - /users/bwb16179/postgrad/2024_03/DFT_Crest_Conformers/Opt/prot/6_prot_aq_3.inp # write input file
|  2> # Basic Mode
|  3> #
|  4> ! Opt Freq wB97X Def2-SVP D4 SlowConv TightSCF Defgrid2 Def2/J RIJCOSX CPCM(Water)
|  5>
|  6>
|  7>
|  8> %maxcore 4500
|  9>
| 10> %geom
| 11> Maxiter 150
| 12> END
| 13>
| 14> * xyzfile 1 1 6_prot_aq_3.xyz
| 15>
| 16>                          ****END OF INPUT****
 Total Charge           Charge          ....    1
 Multiplicity           Mult            ....    1
 Number of Electrons    NEL             ....  100
Dispersion correction           -0.005635922
FINAL SINGLE POINT ENERGY      -540.699556191487
Dispersion correction            ... Starting D4
Dispersion correction           -0.005614332
FINAL SINGLE POINT ENERGY      -540.703038024029
Dispersion correction            ... Starting D4
Dispersion correction           -0.005611801
FINAL SINGLE POINT ENERGY      -540.703280555303
Dispersion correction            ... Starting D4
FINAL SINGLE POINT ENERGY      -540.703419734431
FINAL SINGLE POINT ENERGY      -540.703457936392
FINAL SINGLE POINT ENERGY      -540.703484735868
FINAL SINGLE POINT ENERGY      -540.703496964005
Dispersion correction           -0.005612237
FINAL SINGLE POINT ENERGY      -540.703504358325
Dispersion correction            ... Starting D4
Dispersion correction           -0.005612190
FINAL SINGLE POINT ENERGY      -540.703509377631
Dispersion correction            ... Starting D4
                    ***********************HURRAY********************

CARTESIAN COORDINATES (ANGSTROEM)
---------------------------------
  N     -1.160496   -0.083735    0.133579
  C     -0.151322   -0.917726    0.357279
  N      0.999737   -0.276501    0.177137
  H     -0.240467   -1.966688    0.637830
  C      0.723832    1.036400   -0.188182
  C     -0.642347    1.153036   -0.217182
  C     -2.595370   -0.437052    0.168692
  C      2.308668   -0.959061    0.308612
  C     -3.026266   -0.982663   -1.187303
  H     -3.115347    0.512432    0.361358
  C     -2.891003   -1.389884    1.316849
  C      3.225244   -0.249260    1.296114
  C      2.939850   -1.191064   -1.058719
  H      2.046954   -1.939325    0.734342
  C      1.753322    2.085811   -0.446726
  C     -1.507088    2.325392   -0.530999
  H     -4.108016   -1.180424   -1.178768
  H     -2.501436   -1.925961   -1.407339
  H     -2.811708   -0.264640   -1.993154
  H     -2.533104   -0.982229    2.273786
  H     -2.431998   -2.377590    1.154096
  H     -3.978140   -1.536607    1.386594
  H      4.076767   -0.908330    1.519143
  H      2.700911   -0.035597    2.239249
  H      3.627337    0.689349    0.889321
  H      2.248820   -1.731541   -1.722301
  H      3.847295   -1.800045   -0.935006
  H      3.230884   -0.247751   -1.544247
  H     -0.886371    3.180572   -0.825875
  H     -2.104413    2.625194    0.343930
  H     -2.199158    2.102647   -1.357389
  H      2.546583    1.728846   -1.117574
  H      2.221396    2.430282    0.487682
  H      1.277126    2.952078   -0.923570

 Multiplicity           Mult            ....    1
 Number of Electrons    NEL             ....  100
 Basis Dimension        Dim             ....  287

ORBITAL ENERGIES
----------------

  NO   OCC          E(Eh)            E(eV)
   0   2.0000     -14.502182      -394.6244
   1   2.0000     -14.501225      -394.5984
   2   2.0000     -10.376515      -282.3593
   3   2.0000     -10.336263      -281.2640
   4   2.0000     -10.335506      -281.2434
   5   2.0000     -10.332897      -281.1724
   6   2.0000     -10.331871      -281.1445
   7   2.0000     -10.286936      -279.9218
   8   2.0000     -10.286597      -279.9125
   9   2.0000     -10.275528      -279.6113
  10   2.0000     -10.273836      -279.5653
  11   2.0000     -10.273668      -279.5607
  12   2.0000     -10.273518      -279.5566
  13   2.0000      -1.207859       -32.8675
  14   2.0000      -1.090622       -29.6773
  15   2.0000      -0.966746       -26.3065
  16   2.0000      -0.940617       -25.5955
  17   2.0000      -0.914212       -24.8770
  18   2.0000      -0.868544       -23.6343
  19   2.0000      -0.828738       -22.5511
  20   2.0000      -0.821025       -22.3412
  21   2.0000      -0.819936       -22.3116
  22   2.0000      -0.798534       -21.7292
  23   2.0000      -0.742199       -20.1963
  24   2.0000      -0.716110       -19.4863
  25   2.0000      -0.701268       -19.0825
  26   2.0000      -0.647883       -17.6298
  27   2.0000      -0.629302       -17.1242
  28   2.0000      -0.608622       -16.5614
  29   2.0000      -0.601045       -16.3553
  30   2.0000      -0.572962       -15.5911
  31   2.0000      -0.568468       -15.4688
  32   2.0000      -0.554942       -15.1007
  33   2.0000      -0.542591       -14.7647
  34   2.0000      -0.541210       -14.7271
  35   2.0000      -0.534263       -14.5380
  36   2.0000      -0.525177       -14.2908
  37   2.0000      -0.520725       -14.1697
  38   2.0000      -0.510495       -13.8913
  39   2.0000      -0.506910       -13.7937
  40   2.0000      -0.495810       -13.4917
  41   2.0000      -0.494912       -13.4672
  42   2.0000      -0.488542       -13.2939
  43   2.0000      -0.485348       -13.2070
  44   2.0000      -0.470890       -12.8136
  45   2.0000      -0.461427       -12.5561
  46   2.0000      -0.455792       -12.4027
  47   2.0000      -0.449046       -12.2192
  48   2.0000      -0.405757       -11.0412
  49   2.0000      -0.347964        -9.4686
  50   0.0000       0.064334         1.7506
  51   0.0000       0.104687         2.8487
  52   0.0000       0.131117         3.5679
  53   0.0000       0.144448         3.9306
  54   0.0000       0.149195         4.0598

MULLIKEN ATOMIC CHARGES
-----------------------
   0 N :   -0.194088
   1 C :    0.207428
   2 N :   -0.190506
   3 H :    0.129666
   4 C :   -0.090477
   5 C :   -0.091576
   6 C :   -0.049351
   7 C :   -0.051455
   8 C :    0.007229
   9 H :    0.071090
  10 C :   -0.034017
  11 C :   -0.014395
  12 C :    0.001570
  13 H :    0.071670
  14 C :    0.075012
  15 C :    0.077226
  16 H :    0.061140
  17 H :    0.047435
  18 H :    0.052285
  19 H :    0.061858
  20 H :    0.055400
  21 H :    0.065256
  22 H :    0.062243
  23 H :    0.057000
  24 H :    0.044799
  25 H :    0.053052
  26 H :    0.060848
  27 H :    0.045495
  28 H :    0.055143
  29 H :    0.081169
  30 H :    0.070259
  31 H :    0.063596
  32 H :    0.081729
  33 H :    0.056267
Sum of atomic charges:    1.0000000

LOEWDIN ATOMIC CHARGES
----------------------
   0 N :    0.094051
   1 C :    0.116981
   2 N :    0.093565
   3 H :    0.065220
   4 C :   -0.007266
   5 C :   -0.003528
   6 C :    0.041208
   7 C :    0.042708
   8 C :   -0.052876
   9 H :    0.045644
  10 C :   -0.055022
  11 C :   -0.055680
  12 C :   -0.054237
  13 H :    0.049218
  14 C :   -0.051030
  15 C :   -0.051944
  16 H :    0.044056
  17 H :    0.035438
  18 H :    0.035770
  19 H :    0.039365
  20 H :    0.035991
  21 H :    0.047383
  22 H :    0.046360
  23 H :    0.038681
  24 H :    0.033814
  25 H :    0.037407
  26 H :    0.045277
  27 H :    0.033251
  28 H :    0.052928
  29 H :    0.054162
  30 H :    0.051146
  31 H :    0.046804
  32 H :    0.052247
  33 H :    0.052909

  Mayer bond orders larger than 0.100000
B(  0-N ,  1-C ) :   1.3438 B(  0-N ,  5-C ) :   1.1667 B(  0-N ,  6-C ) :   0.8528
B(  1-C ,  2-N ) :   1.3554 B(  1-C ,  3-H ) :   0.9666 B(  2-N ,  4-C ) :   1.1555
B(  2-N ,  7-C ) :   0.8594 B(  4-C ,  5-C ) :   1.6217 B(  4-C , 14-C ) :   1.0916
B(  5-C , 15-C ) :   1.0927 B(  6-C ,  8-C ) :   1.0702 B(  6-C ,  9-H ) :   0.9350
B(  6-C , 10-C ) :   1.0735 B(  7-C , 11-C ) :   1.0692 B(  7-C , 12-C ) :   1.0721
B(  7-C , 13-H ) :   0.9361 B(  8-C , 16-H ) :   0.9710 B(  8-C , 17-H ) :   0.9617
B(  8-C , 18-H ) :   0.9635 B( 10-C , 19-H ) :   0.9684 B( 10-C , 20-H ) :   0.9621
B( 10-C , 21-H ) :   0.9653 B( 11-C , 22-H ) :   0.9656 B( 11-C , 23-H ) :   0.9665
B( 11-C , 24-H ) :   0.9634 B( 12-C , 25-H ) :   0.9646 B( 12-C , 26-H ) :   0.9680
B( 12-C , 27-H ) :   0.9608 B( 14-C , 31-H ) :   0.9459 B( 14-C , 32-H ) :   0.9464
B( 14-C , 33-H ) :   0.9383 B( 15-C , 28-H ) :   0.9393 B( 15-C , 29-H ) :   0.9454
B( 15-C , 30-H ) :   0.9448

Dispersion correction           -0.005612199
FINAL SINGLE POINT ENERGY      -540.703511895552

DIPOLE MOMENT
-------------
                                X             Y             Z
Electronic contribution:     -1.01109       0.26492       1.24758
Nuclear contribution   :      0.82160      -0.63184      -1.04464
                        -----------------------------------------
Total Dipole Moment    :     -0.18949      -0.36692       0.20293
                        -----------------------------------------
Magnitude (a.u.)       :      0.46013
Magnitude (Debye)      :      1.16956

Dispersion correction in the Hessian             ... Starting D4

VIBRATIONAL FREQUENCIES
-----------------------

Scaling factor for frequencies =  1.000000000  (already applied!)

   0:         0.00 cm**-1
   1:         0.00 cm**-1
   2:         0.00 cm**-1
   3:         0.00 cm**-1
   4:         0.00 cm**-1
   5:         0.00 cm**-1
   6:        33.91 cm**-1
   7:        59.65 cm**-1
   8:        94.26 cm**-1
   9:       101.88 cm**-1
  10:       152.56 cm**-1
  11:       161.89 cm**-1
  12:       198.75 cm**-1
  13:       208.11 cm**-1
  14:       221.86 cm**-1
  15:       223.81 cm**-1
  16:       233.78 cm**-1
  17:       260.18 cm**-1
  18:       279.93 cm**-1
  19:       286.06 cm**-1
  20:       293.43 cm**-1
  21:       318.35 cm**-1
  22:       336.57 cm**-1
  23:       385.66 cm**-1
  24:       419.87 cm**-1
  25:       467.00 cm**-1
  26:       490.12 cm**-1
  27:       540.29 cm**-1
  28:       583.12 cm**-1
  29:       650.57 cm**-1
  30:       676.95 cm**-1
  31:       715.32 cm**-1
  32:       751.88 cm**-1
  33:       790.22 cm**-1
  34:       876.11 cm**-1
  35:       917.24 cm**-1
  36:       931.33 cm**-1
  37:       938.82 cm**-1
  38:       945.02 cm**-1
  39:       958.66 cm**-1
  40:       968.33 cm**-1
  41:       980.19 cm**-1
  42:      1039.40 cm**-1
  43:      1051.81 cm**-1
  44:      1066.63 cm**-1
  45:      1097.13 cm**-1
  46:      1127.75 cm**-1
  47:      1172.85 cm**-1
  48:      1175.28 cm**-1
  49:      1177.56 cm**-1
  50:      1187.82 cm**-1
  51:      1217.26 cm**-1
  52:      1232.49 cm**-1
  53:      1268.86 cm**-1
  54:      1344.32 cm**-1
  55:      1349.87 cm**-1
  56:      1351.58 cm**-1
  57:      1375.48 cm**-1
  58:      1395.37 cm**-1
  59:      1399.20 cm**-1
  60:      1403.22 cm**-1
  61:      1404.93 cm**-1
  62:      1408.17 cm**-1
  63:      1418.24 cm**-1
  64:      1429.62 cm**-1
  65:      1442.15 cm**-1
  66:      1443.54 cm**-1
  67:      1443.93 cm**-1
  68:      1445.90 cm**-1
  69:      1449.34 cm**-1
  70:      1453.69 cm**-1
  71:      1457.13 cm**-1
  72:      1460.64 cm**-1
  73:      1463.63 cm**-1
  74:      1465.71 cm**-1
  75:      1470.47 cm**-1
  76:      1475.89 cm**-1
  77:      1520.16 cm**-1
  78:      1527.64 cm**-1
  79:      1652.57 cm**-1
  80:      1724.24 cm**-1
  81:      3068.72 cm**-1
  82:      3075.58 cm**-1
  83:      3077.05 cm**-1
  84:      3077.77 cm**-1
  85:      3082.05 cm**-1
  86:      3090.59 cm**-1
  87:      3130.22 cm**-1
  88:      3144.19 cm**-1
  89:      3169.37 cm**-1
  90:      3173.18 cm**-1
  91:      3178.96 cm**-1
  92:      3183.09 cm**-1
  93:      3184.85 cm**-1
  94:      3185.57 cm**-1
  95:      3185.92 cm**-1
  96:      3188.49 cm**-1
  97:      3189.61 cm**-1
  98:      3194.29 cm**-1
  99:      3204.36 cm**-1
 100:      3208.67 cm**-1
 101:      3301.67 cm**-1

IR SPECTRUM
-----------

 Mode   freq       eps      Int      T**2         TX        TY        TZ
       cm**-1   L/(mol*cm) km/mol    a.u.
----------------------------------------------------------------------------
  6:     33.91   0.000090    0.45  0.000826  (-0.001012  0.001270 -0.028687)
  7:     59.65   0.000003    0.01  0.000015  (-0.003123 -0.002083  0.001147)
  8:     94.26   0.000030    0.15  0.000101  ( 0.004179  0.006371  0.006518)
  9:    101.88   0.000061    0.31  0.000187  (-0.002090 -0.006018 -0.012082)
 10:    152.56   0.000022    0.11  0.000044  (-0.004392 -0.003705 -0.003387)
 11:    161.89   0.000034    0.17  0.000066  ( 0.004931 -0.005292 -0.003737)
 12:    198.75   0.000001    0.01  0.000002  ( 0.001165 -0.000528  0.000128)
 13:    208.11   0.000133    0.67  0.000200  ( 0.000261 -0.001131 -0.014085)
 14:    221.86   0.000017    0.09  0.000024  (-0.001054  0.001311 -0.004639)
 15:    223.81   0.000031    0.16  0.000043  (-0.002836  0.005441 -0.002278)
 16:    233.78   0.000015    0.07  0.000020  ( 0.002402 -0.003698 -0.000390)
 17:    260.18   0.000232    1.17  0.000278  (-0.002090 -0.001862 -0.016439)
 18:    279.93   0.000143    0.72  0.000159  (-0.004703  0.008548  0.007989)
 19:    286.06   0.000032    0.16  0.000035  ( 0.000279  0.001810  0.005651)
 20:    293.43   0.002453   12.40  0.002609  ( 0.001083 -0.013928 -0.049132)
 21:    318.35   0.000022    0.11  0.000022  ( 0.000981 -0.004426  0.001081)
 22:    336.57   0.000029    0.14  0.000027  ( 0.001749 -0.002917  0.003868)
 23:    385.66   0.000213    1.08  0.000172  (-0.009679 -0.000193 -0.008861)
 24:    419.87   0.000240    1.21  0.000178  (-0.011556  0.006308  0.002205)
 25:    467.00   0.000304    1.54  0.000203  (-0.012891  0.006094 -0.000229)
 26:    490.12   0.000089    0.45  0.000057  ( 0.003715 -0.006508  0.000671)
 27:    540.29   0.000641    3.24  0.000370  (-0.014608 -0.012162  0.002942)
 28:    583.12   0.000809    4.09  0.000433  ( 0.018916  0.008645 -0.000606)
 29:    650.57   0.000987    4.99  0.000473  (-0.021044  0.005270  0.001636)
 30:    676.95   0.006099   30.82  0.002811  ( 0.002592 -0.012561 -0.051448)
 31:    715.32   0.000072    0.37  0.000032  (-0.005419 -0.001352 -0.000578)
 32:    751.88   0.000382    1.93  0.000159  (-0.004215 -0.011607  0.002485)
 33:    790.22   0.000363    1.84  0.000143  (-0.011475 -0.003408 -0.000408)
 34:    876.11   0.002378   12.02  0.000847  ( 0.000154  0.009461  0.027526)
 35:    917.24   0.000238    1.20  0.000081  ( 0.007300  0.003577 -0.003842)
 36:    931.33   0.000980    4.95  0.000328  (-0.009015  0.015376 -0.003247)
 37:    938.82   0.000767    3.88  0.000255  ( 0.002179  0.005177  0.014945)
 38:    945.02   0.000568    2.87  0.000188  ( 0.002665  0.001751 -0.013317)
 39:    958.66   0.000174    0.88  0.000057  (-0.001338 -0.003483 -0.006533)
 40:    968.33   0.000306    1.55  0.000099  ( 0.002219  0.003811 -0.008897)
 41:    980.19   0.000176    0.89  0.000056  ( 0.000668 -0.007318  0.001482)
 42:   1039.40   0.001630    8.24  0.000489  ( 0.004089  0.013643  0.016929)
 43:   1051.81   0.001909    9.65  0.000566  (-0.017369  0.014969 -0.006368)
 44:   1066.63   0.000354    1.79  0.000104  (-0.009805  0.001934  0.001938)
 45:   1097.13   0.001446    7.31  0.000411  (-0.001301  0.019285 -0.006147)
 46:   1127.75   0.007405   37.42  0.002049  ( 0.042866 -0.014342  0.002400)
 47:   1172.85   0.002623   13.26  0.000698  (-0.026134  0.000527 -0.003829)
 48:   1175.28   0.001037    5.24  0.000275  (-0.002155  0.004839  0.015726)
 49:   1177.56   0.003174   16.04  0.000841  ( 0.001392 -0.003386 -0.028769)
 50:   1187.82   0.001137    5.75  0.000299  ( 0.013104 -0.011265  0.000244)
 51:   1217.26   0.001398    7.06  0.000358  (-0.012872  0.013208 -0.004266)
 52:   1232.49   0.036056  182.21  0.009129  (-0.095485 -0.003262 -0.001109)
 53:   1268.86   0.003436   17.37  0.000845  (-0.026903  0.010926 -0.001411)
 54:   1344.32   0.012660   63.98  0.002939  ( 0.051249 -0.017456  0.002781)
 55:   1349.87   0.000022    0.11  0.000005  ( 0.000808  0.000675  0.001976)
 56:   1351.58   0.001221    6.17  0.000282  ( 0.016422 -0.000990  0.003367)
 57:   1375.48   0.000555    2.81  0.000126  (-0.006458  0.008805  0.002599)
 58:   1395.37   0.002462   12.44  0.000551  ( 0.021849  0.006593 -0.005448)
 59:   1399.20   0.004796   24.24  0.001070  ( 0.008091  0.011260  0.029622)
 60:   1403.22   0.003518   17.78  0.000782  (-0.024882  0.012513  0.002598)
 61:   1404.93   0.003771   19.06  0.000838  (-0.004984 -0.003184 -0.028331)
 62:   1408.17   0.001085    5.48  0.000240  ( 0.010553  0.011211  0.001832)
 63:   1418.24   0.003543   17.90  0.000779  (-0.009920 -0.025320  0.006321)
 64:   1429.62   0.008786   44.40  0.001918  ( 0.021015  0.038422 -0.000181)
 65:   1442.15   0.001696    8.57  0.000367  (-0.018806 -0.003354 -0.001468)
 66:   1443.54   0.000330    1.67  0.000071  ( 0.002927 -0.004725 -0.006355)
 67:   1443.93   0.002025   10.24  0.000438  ( 0.011819  0.001037 -0.017232)
 68:   1445.90   0.002006   10.14  0.000433  (-0.005145 -0.006044 -0.019237)
 69:   1449.34   0.002768   13.99  0.000596  (-0.007302  0.001682  0.023235)
 70:   1453.69   0.000394    1.99  0.000085  ( 0.003000  0.002752 -0.008250)
 71:   1457.13   0.001863    9.42  0.000399  (-0.012490  0.012901 -0.008752)
 72:   1460.64   0.001979   10.00  0.000423  (-0.018392 -0.001475  0.009081)
 73:   1463.63   0.004486   22.67  0.000956  ( 0.000457 -0.030548 -0.004799)
 74:   1465.71   0.005882   29.73  0.001252  (-0.009646 -0.024821  0.023307)
 75:   1470.47   0.000797    4.03  0.000169  (-0.008600  0.009366 -0.002718)
 76:   1475.89   0.000127    0.64  0.000027  (-0.001598  0.004314  0.002384)
 77:   1520.16   0.001839    9.29  0.000378  (-0.017059  0.008887 -0.002744)
 78:   1527.64   0.000680    3.44  0.000139  ( 0.009191 -0.007098  0.002012)
 79:   1652.57   0.040389  204.11  0.007627  (-0.087264  0.002511 -0.002364)
 80:   1724.24   0.006213   31.40  0.001124  ( 0.000613  0.032078 -0.009753)
 81:   3068.72   0.002573   13.00  0.000262  ( 0.004429  0.003630  0.015126)
 82:   3075.58   0.001901    9.61  0.000193  (-0.001956 -0.010419  0.008975)
 83:   3077.05   0.002783   14.06  0.000282  (-0.003541  0.004334  0.015840)
 84:   3077.77   0.002138   10.81  0.000217  (-0.011593  0.008617 -0.002856)
 85:   3082.05   0.001631    8.24  0.000165  (-0.008393 -0.004631 -0.008561)
 86:   3090.59   0.002879   14.55  0.000291  (-0.014352 -0.009024  0.001831)
 87:   3130.22   0.001311    6.63  0.000131  (-0.000515 -0.010237  0.005063)
 88:   3144.19   0.000327    1.65  0.000032  (-0.003811  0.002932  0.003060)
 89:   3169.37   0.000682    3.45  0.000067  (-0.001003 -0.000171 -0.008129)
 90:   3173.18   0.001965    9.93  0.000193  (-0.004059  0.011458 -0.006740)
 91:   3178.96   0.004222   21.34  0.000414  ( 0.007800 -0.017826 -0.005989)
 92:   3183.09   0.002028   10.25  0.000199  (-0.005764 -0.011652 -0.005459)
 93:   3184.85   0.001069    5.40  0.000105  (-0.006185 -0.001979 -0.007913)
 94:   3185.57   0.002477   12.52  0.000243  ( 0.012517  0.000639 -0.009251)
 95:   3185.92   0.002680   13.55  0.000263  ( 0.014660 -0.003934 -0.005671)
 96:   3188.49   0.002863   14.47  0.000280  ( 0.002530 -0.014489  0.007991)
 97:   3189.61   0.002602   13.15  0.000255  (-0.014764 -0.003078 -0.005210)
 98:   3194.29   0.002611   13.19  0.000255  (-0.002978 -0.013499  0.007996)
 99:   3204.36   0.000831    4.20  0.000081  (-0.007800 -0.004055  0.001900)
100:   3208.67   0.000472    2.38  0.000046  ( 0.004516 -0.005044 -0.000237)
101:   3301.67   0.010826   54.71  0.001023  ( 0.003315  0.030736 -0.008218)

--------------------------
THERMOCHEMISTRY AT 298.15K
--------------------------

Temperature         ... 298.15 K
Pressure            ... 1.00 atm
Total Mass          ... 181.30 AMU

Throughout the following assumptions are being made:
  (1) The electronic state is orbitally nondegenerate
  (2) There are no thermally accessible electronically excited states
  (3) Hindered rotations indicated by low frequency modes are not
      treated as such but are treated as vibrations and this may
      cause some error
  (4) All equations used are the standard statistical mechanics
      equations for an ideal gas
  (5) All vibrations are strictly harmonic

freq.      33.91  E(vib)   ...       0.55
freq.      59.65  E(vib)   ...       0.51
freq.      94.26  E(vib)   ...       0.47
freq.     101.88  E(vib)   ...       0.46
freq.     152.56  E(vib)   ...       0.40
freq.     161.89  E(vib)   ...       0.39
freq.     198.75  E(vib)   ...       0.35
freq.     208.11  E(vib)   ...       0.34
freq.     221.86  E(vib)   ...       0.33
freq.     223.81  E(vib)   ...       0.33
freq.     233.78  E(vib)   ...       0.32
freq.     260.18  E(vib)   ...       0.30
freq.     279.93  E(vib)   ...       0.28
freq.     286.06  E(vib)   ...       0.27
freq.     293.43  E(vib)   ...       0.27
freq.     318.35  E(vib)   ...       0.25
freq.     336.57  E(vib)   ...       0.24
freq.     385.66  E(vib)   ...       0.20
freq.     419.87  E(vib)   ...       0.18
freq.     467.00  E(vib)   ...       0.16
freq.     490.12  E(vib)   ...       0.15
freq.     540.29  E(vib)   ...       0.12
freq.     583.12  E(vib)   ...       0.11
freq.     650.57  E(vib)   ...       0.08
freq.     676.95  E(vib)   ...       0.08
freq.     715.32  E(vib)   ...       0.07
freq.     751.88  E(vib)   ...       0.06
freq.     790.22  E(vib)   ...       0.05
freq.     876.11  E(vib)   ...       0.04
freq.     917.24  E(vib)   ...       0.03
freq.     931.33  E(vib)   ...       0.03
freq.     938.82  E(vib)   ...       0.03
freq.     945.02  E(vib)   ...       0.03
freq.     958.66  E(vib)   ...       0.03
freq.     968.33  E(vib)   ...       0.03
freq.     980.19  E(vib)   ...       0.02
freq.    1039.40  E(vib)   ...       0.02
freq.    1051.81  E(vib)   ...       0.02
freq.    1066.63  E(vib)   ...       0.02
freq.    1097.13  E(vib)   ...       0.02
freq.    1127.75  E(vib)   ...       0.01
freq.    1172.85  E(vib)   ...       0.01
freq.    1175.28  E(vib)   ...       0.01
freq.    1177.56  E(vib)   ...       0.01
freq.    1187.82  E(vib)   ...       0.01
freq.    1217.26  E(vib)   ...       0.01
freq.    1232.49  E(vib)   ...       0.01
freq.    1268.86  E(vib)   ...       0.01
freq.    1344.32  E(vib)   ...       0.01
freq.    1349.87  E(vib)   ...       0.01
freq.    1351.58  E(vib)   ...       0.01
freq.    1375.48  E(vib)   ...       0.01
freq.    1395.37  E(vib)   ...       0.00
freq.    1399.20  E(vib)   ...       0.00
freq.    1403.22  E(vib)   ...       0.00
freq.    1404.93  E(vib)   ...       0.00
freq.    1408.17  E(vib)   ...       0.00
freq.    1418.24  E(vib)   ...       0.00
freq.    1429.62  E(vib)   ...       0.00
freq.    1442.15  E(vib)   ...       0.00
freq.    1443.54  E(vib)   ...       0.00
freq.    1443.93  E(vib)   ...       0.00
freq.    1445.90  E(vib)   ...       0.00
freq.    1449.34  E(vib)   ...       0.00
freq.    1453.69  E(vib)   ...       0.00
freq.    1457.13  E(vib)   ...       0.00
freq.    1460.64  E(vib)   ...       0.00
freq.    1463.63  E(vib)   ...       0.00
freq.    1465.71  E(vib)   ...       0.00
freq.    1470.47  E(vib)   ...       0.00
freq.    1475.89  E(vib)   ...       0.00
freq.    1520.16  E(vib)   ...       0.00
freq.    1527.64  E(vib)   ...       0.00
freq.    1652.57  E(vib)   ...       0.00
freq.    1724.24  E(vib)   ...       0.00
freq.    3068.72  E(vib)   ...       0.00
freq.    3075.58  E(vib)   ...       0.00
freq.    3077.05  E(vib)   ...       0.00
freq.    3077.77  E(vib)   ...       0.00
freq.    3082.05  E(vib)   ...       0.00
freq.    3090.59  E(vib)   ...       0.00
freq.    3130.22  E(vib)   ...       0.00
freq.    3144.19  E(vib)   ...       0.00
freq.    3169.37  E(vib)   ...       0.00
freq.    3173.18  E(vib)   ...       0.00
freq.    3178.96  E(vib)   ...       0.00
freq.    3183.09  E(vib)   ...       0.00
freq.    3184.85  E(vib)   ...       0.00
freq.    3185.57  E(vib)   ...       0.00
freq.    3185.92  E(vib)   ...       0.00
freq.    3188.49  E(vib)   ...       0.00
freq.    3189.61  E(vib)   ...       0.00
freq.    3194.29  E(vib)   ...       0.00
freq.    3204.36  E(vib)   ...       0.00
freq.    3208.67  E(vib)   ...       0.00
freq.    3301.67  E(vib)   ...       0.00

------------
INNER ENERGY
------------

The inner energy is: U= E(el) + E(ZPE) + E(vib) + E(rot) + E(trans)
    E(el)   - is the total energy from the electronic structure calculation
              = E(kin-el) + E(nuc-el) + E(el-el) + E(nuc-nuc)
    E(ZPE)  - the the zero temperature vibrational energy from the frequency calculation
    E(vib)  - the the finite temperature correction to E(ZPE) due to population
              of excited vibrational states
    E(rot)  - is the rotational thermal energy
    E(trans)- is the translational thermal energy

Summary of contributions to the inner energy U:
Electronic energy                ...   -540.70351190 Eh
Zero point energy                ...      0.31151073 Eh     195.48 kcal/mol
Thermal vibrational correction   ...      0.01245082 Eh       7.81 kcal/mol
Thermal rotational correction    ...      0.00141627 Eh       0.89 kcal/mol
Thermal translational correction ...      0.00141627 Eh       0.89 kcal/mol
-----------------------------------------------------------------------
Total thermal energy                   -540.37671780 Eh

Summary of corrections to the electronic energy:
(perhaps to be used in another calculation)
Total thermal correction                  0.01528337 Eh       9.59 kcal/mol
Non-thermal (ZPE) correction              0.31151073 Eh     195.48 kcal/mol
-----------------------------------------------------------------------
Total correction                          0.32679410 Eh     205.07 kcal/mol

--------
ENTHALPY
--------

The enthalpy is H = U + kB*T
                kB is Boltzmann's constant
Total free energy                 ...   -540.37671780 Eh
Thermal Enthalpy correction       ...      0.00094421 Eh       0.59 kcal/mol
-----------------------------------------------------------------------
Total Enthalpy                    ...   -540.37577359 Eh

Note: Only C1 symmetry has been detected, increase convergence thresholds
      if your molecule has a higher symmetry. Symmetry factor of 1.0 is
      used for the rotational entropy correction.

Rotational constants in cm-1:     0.041196     0.017462     0.014504

                             ****ORCA TERMINATED NORMALLY****
TOTAL RUN TIME: 0 days 2 hours 18 minutes 8 seconds 628 msec
