                         Program Version 5.0.4 -  RELEASE  -
|  1> # ORCA 5.0.4 - /users/bwb16179/postgrad/2024_03/DFT_Crest_Conformers/Opt/prot/6_prot_aq_2.inp # write input file
|  2> # Basic Mode
|  3> #
|  4> ! Opt Freq wB97X Def2-SVP D4 SlowConv TightSCF Defgrid2 Def2/J RIJCOSX CPCM(Water)
|  5>
|  6>
|  7>
|  8> %maxcore 4500
|  9>
| 10> %geom
| 11> Maxiter 150
| 12> END
| 13>
| 14> * xyzfile 1 1 6_prot_aq_2.xyz
| 15>
| 16>                          ****END OF INPUT****
 Total Charge           Charge          ....    1
 Multiplicity           Mult            ....    1
 Number of Electrons    NEL             ....  100
Dispersion correction           -0.005642745
FINAL SINGLE POINT ENERGY      -540.701602342129
Dispersion correction            ... Starting D4
Dispersion correction           -0.005614338
FINAL SINGLE POINT ENERGY      -540.705114688432
Dispersion correction            ... Starting D4
Dispersion correction           -0.005610637
FINAL SINGLE POINT ENERGY      -540.705324795521
Dispersion correction            ... Starting D4
FINAL SINGLE POINT ENERGY      -540.705429038161
FINAL SINGLE POINT ENERGY      -540.705455637723
FINAL SINGLE POINT ENERGY      -540.705478376423
FINAL SINGLE POINT ENERGY      -540.705496967914
FINAL SINGLE POINT ENERGY      -540.705528093361
FINAL SINGLE POINT ENERGY      -540.705569164742
FINAL SINGLE POINT ENERGY      -540.705620376285
FINAL SINGLE POINT ENERGY      -540.705661154793
Dispersion correction           -0.005613292
FINAL SINGLE POINT ENERGY      -540.705680749379
Dispersion correction            ... Starting D4
Dispersion correction           -0.005613528
FINAL SINGLE POINT ENERGY      -540.705684342092
Dispersion correction            ... Starting D4
                    ***********************HURRAY********************

CARTESIAN COORDINATES (ANGSTROEM)
---------------------------------
  N     -1.070887   -0.051188   -0.195569
  C      0.019893   -0.804839   -0.292509
  N      1.093019   -0.041862   -0.106808
  H      0.034301   -1.875099   -0.490300
  C      0.680072    1.260548    0.133168
  C     -0.688616    1.255713    0.073343
  C     -2.466684   -0.531750   -0.283850
  C      2.491854   -0.520866   -0.095488
  C     -2.578349   -1.714821   -1.233285
  H     -3.028322    0.312978   -0.709376
  C     -2.997399   -0.845951    1.109659
  C      2.725096   -1.533768   -1.206505
  C      2.845028   -1.055241    1.286811
  H      3.097842    0.371619   -0.306898
  C      1.634172    2.377687    0.382502
  C     -1.667065    2.371096    0.211278
  H     -3.642193   -1.947600   -1.381552
  H     -2.097086   -2.614986   -0.819758
  H     -2.134847   -1.487713   -2.214000
  H     -2.438426   -1.684803    1.553501
  H     -4.057296   -1.131446    1.042391
  H     -2.917314    0.022259    1.780379
  H      2.418217   -1.129279   -2.182292
  H      2.182185   -2.473713   -1.021413
  H      3.796978   -1.773468   -1.250616
  H      3.903877   -1.351454    1.308473
  H      2.232048   -1.938446    1.527793
  H      2.681851   -0.291838    2.062486
  H     -2.243844    2.508451   -0.716431
  H     -1.134824    3.307307    0.421238
  H     -2.377718    2.189314    1.031365
  H      2.277788    2.166905    1.250180
  H      1.078512    3.301543    0.586844
  H      2.282050    2.554795   -0.489710

 Multiplicity           Mult            ....    1
 Number of Electrons    NEL             ....  100
 Basis Dimension        Dim             ....  287

ORBITAL ENERGIES
----------------

  NO   OCC          E(Eh)            E(eV)
   0   2.0000     -14.501755      -394.6128
   1   2.0000     -14.501132      -394.5959
   2   2.0000     -10.376629      -282.3624
   3   2.0000     -10.335719      -281.2492
   4   2.0000     -10.335263      -281.2368
   5   2.0000     -10.331993      -281.1478
   6   2.0000     -10.331341      -281.1301
   7   2.0000     -10.286922      -279.9214
   8   2.0000     -10.286855      -279.9195
   9   2.0000     -10.275971      -279.6234
  10   2.0000     -10.275418      -279.6083
  11   2.0000     -10.273882      -279.5666
  12   2.0000     -10.273728      -279.5623
  13   2.0000      -1.208019       -32.8719
  14   2.0000      -1.090993       -29.6874
  15   2.0000      -0.967492       -26.3268
  16   2.0000      -0.939661       -25.5695
  17   2.0000      -0.915691       -24.9172
  18   2.0000      -0.866765       -23.5859
  19   2.0000      -0.829912       -22.5830
  20   2.0000      -0.821092       -22.3431
  21   2.0000      -0.817949       -22.2575
  22   2.0000      -0.804451       -21.8902
  23   2.0000      -0.732156       -19.9230
  24   2.0000      -0.727648       -19.8003
  25   2.0000      -0.694375       -18.8949
  26   2.0000      -0.652464       -17.7544
  27   2.0000      -0.629104       -17.1188
  28   2.0000      -0.608922       -16.5696
  29   2.0000      -0.601848       -16.3771
  30   2.0000      -0.578040       -15.7293
  31   2.0000      -0.566598       -15.4179
  32   2.0000      -0.556146       -15.1335
  33   2.0000      -0.542731       -14.7685
  34   2.0000      -0.535453       -14.5704
  35   2.0000      -0.533383       -14.5141
  36   2.0000      -0.520108       -14.1529
  37   2.0000      -0.518890       -14.1197
  38   2.0000      -0.513604       -13.9759
  39   2.0000      -0.506747       -13.7893
  40   2.0000      -0.500568       -13.6212
  41   2.0000      -0.494131       -13.4460
  42   2.0000      -0.489923       -13.3315
  43   2.0000      -0.482650       -13.1336
  44   2.0000      -0.471720       -12.8362
  45   2.0000      -0.461190       -12.5496
  46   2.0000      -0.456962       -12.4346
  47   2.0000      -0.455446       -12.3933
  48   2.0000      -0.404600       -11.0097
  49   2.0000      -0.347795        -9.4640
  50   0.0000       0.063143         1.7182
  51   0.0000       0.107489         2.9249
  52   0.0000       0.129919         3.5353
  53   0.0000       0.144921         3.9435
  54   0.0000       0.147086         4.0024

MULLIKEN ATOMIC CHARGES
-----------------------
   0 N :   -0.196479
   1 C :    0.211538
   2 N :   -0.195817
   3 H :    0.122556
   4 C :   -0.090933
   5 C :   -0.094100
   6 C :   -0.043515
   7 C :   -0.050085
   8 C :   -0.039267
   9 H :    0.071925
  10 C :    0.005495
  11 C :   -0.032732
  12 C :    0.007474
  13 H :    0.070912
  14 C :    0.074983
  15 C :    0.078712
  16 H :    0.066598
  17 H :    0.057475
  18 H :    0.062886
  19 H :    0.047585
  20 H :    0.061377
  21 H :    0.050632
  22 H :    0.061608
  23 H :    0.054442
  24 H :    0.064950
  25 H :    0.060847
  26 H :    0.047042
  27 H :    0.052825
  28 H :    0.079902
  29 H :    0.055695
  30 H :    0.067691
  31 H :    0.071290
  32 H :    0.055679
  33 H :    0.080809
Sum of atomic charges:    1.0000000

LOEWDIN ATOMIC CHARGES
----------------------
   0 N :    0.094549
   1 C :    0.116057
   2 N :    0.094143
   3 H :    0.061874
   4 C :   -0.005456
   5 C :   -0.007204
   6 C :    0.041776
   7 C :    0.040944
   8 C :   -0.055606
   9 H :    0.045895
  10 C :   -0.052781
  11 C :   -0.055026
  12 C :   -0.053041
  13 H :    0.045761
  14 C :   -0.051971
  15 C :   -0.051453
  16 H :    0.048396
  17 H :    0.036510
  18 H :    0.039335
  19 H :    0.035784
  20 H :    0.044418
  21 H :    0.034668
  22 H :    0.039270
  23 H :    0.035641
  24 H :    0.047132
  25 H :    0.043915
  26 H :    0.035143
  27 H :    0.036226
  28 H :    0.053719
  29 H :    0.053167
  30 H :    0.049997
  31 H :    0.051606
  32 H :    0.053044
  33 H :    0.053568

  Mayer bond orders larger than 0.100000
B(  0-N ,  1-C ) :   1.3501 B(  0-N ,  5-C ) :   1.1638 B(  0-N ,  6-C ) :   0.8556
B(  1-C ,  2-N ) :   1.3436 B(  1-C ,  3-H ) :   0.9671 B(  2-N ,  4-C ) :   1.1661
B(  2-N ,  7-C ) :   0.8522 B(  4-C ,  5-C ) :   1.6201 B(  4-C , 14-C ) :   1.0914
B(  5-C , 15-C ) :   1.0909 B(  6-C ,  8-C ) :   1.0751 B(  6-C ,  9-H ) :   0.9354
B(  6-C , 10-C ) :   1.0688 B(  7-C , 11-C ) :   1.0735 B(  7-C , 12-C ) :   1.0704
B(  7-C , 13-H ) :   0.9351 B(  8-C , 16-H ) :   0.9640 B(  8-C , 17-H ) :   0.9611
B(  8-C , 18-H ) :   0.9676 B( 10-C , 19-H ) :   0.9615 B( 10-C , 20-H ) :   0.9709
B( 10-C , 21-H ) :   0.9633 B( 11-C , 22-H ) :   0.9685 B( 11-C , 23-H ) :   0.9624
B( 11-C , 24-H ) :   0.9655 B( 12-C , 25-H ) :   0.9711 B( 12-C , 26-H ) :   0.9617
B( 12-C , 27-H ) :   0.9640 B( 14-C , 31-H ) :   0.9454 B( 14-C , 32-H ) :   0.9403
B( 14-C , 33-H ) :   0.9456 B( 15-C , 28-H ) :   0.9462 B( 15-C , 29-H ) :   0.9401
B( 15-C , 30-H ) :   0.9445

Dispersion correction           -0.005613652
FINAL SINGLE POINT ENERGY      -540.705686006636

DIPOLE MOMENT
-------------
                                X             Y             Z
Electronic contribution:      0.10862       2.52523      -1.34373
Nuclear contribution   :     -0.10241      -2.65195       1.16159
                        -----------------------------------------
Total Dipole Moment    :      0.00621      -0.12671      -0.18214
                        -----------------------------------------
Magnitude (a.u.)       :      0.22197
Magnitude (Debye)      :      0.56420

Dispersion correction in the Hessian             ... Starting D4

VIBRATIONAL FREQUENCIES
-----------------------

Scaling factor for frequencies =  1.000000000  (already applied!)

   0:         0.00 cm**-1
   1:         0.00 cm**-1
   2:         0.00 cm**-1
   3:         0.00 cm**-1
   4:         0.00 cm**-1
   5:         0.00 cm**-1
   6:        31.32 cm**-1
   7:        47.66 cm**-1
   8:        87.41 cm**-1
   9:       106.99 cm**-1
  10:       146.94 cm**-1
  11:       154.79 cm**-1
  12:       187.74 cm**-1
  13:       215.14 cm**-1
  14:       229.68 cm**-1
  15:       248.28 cm**-1
  16:       263.09 cm**-1
  17:       278.84 cm**-1
  18:       283.55 cm**-1
  19:       290.54 cm**-1
  20:       292.99 cm**-1
  21:       319.63 cm**-1
  22:       322.58 cm**-1
  23:       396.72 cm**-1
  24:       411.58 cm**-1
  25:       466.99 cm**-1
  26:       488.30 cm**-1
  27:       552.45 cm**-1
  28:       608.35 cm**-1
  29:       619.08 cm**-1
  30:       674.21 cm**-1
  31:       712.11 cm**-1
  32:       754.54 cm**-1
  33:       802.05 cm**-1
  34:       871.96 cm**-1
  35:       915.29 cm**-1
  36:       928.31 cm**-1
  37:       936.87 cm**-1
  38:       942.19 cm**-1
  39:       965.79 cm**-1
  40:       969.83 cm**-1
  41:       977.23 cm**-1
  42:      1040.56 cm**-1
  43:      1064.03 cm**-1
  44:      1066.92 cm**-1
  45:      1098.84 cm**-1
  46:      1132.30 cm**-1
  47:      1156.96 cm**-1
  48:      1171.75 cm**-1
  49:      1177.18 cm**-1
  50:      1197.69 cm**-1
  51:      1221.42 cm**-1
  52:      1230.38 cm**-1
  53:      1254.11 cm**-1
  54:      1346.14 cm**-1
  55:      1350.89 cm**-1
  56:      1353.09 cm**-1
  57:      1378.11 cm**-1
  58:      1390.53 cm**-1
  59:      1399.48 cm**-1
  60:      1402.55 cm**-1
  61:      1405.01 cm**-1
  62:      1408.13 cm**-1
  63:      1417.74 cm**-1
  64:      1426.32 cm**-1
  65:      1440.52 cm**-1
  66:      1442.08 cm**-1
  67:      1444.28 cm**-1
  68:      1446.03 cm**-1
  69:      1448.86 cm**-1
  70:      1453.28 cm**-1
  71:      1457.91 cm**-1
  72:      1460.69 cm**-1
  73:      1462.63 cm**-1
  74:      1464.18 cm**-1
  75:      1475.07 cm**-1
  76:      1478.81 cm**-1
  77:      1516.82 cm**-1
  78:      1528.71 cm**-1
  79:      1654.32 cm**-1
  80:      1732.57 cm**-1
  81:      3068.34 cm**-1
  82:      3071.20 cm**-1
  83:      3074.84 cm**-1
  84:      3075.02 cm**-1
  85:      3077.67 cm**-1
  86:      3079.26 cm**-1
  87:      3138.35 cm**-1
  88:      3148.24 cm**-1
  89:      3170.38 cm**-1
  90:      3171.29 cm**-1
  91:      3172.48 cm**-1
  92:      3175.49 cm**-1
  93:      3178.24 cm**-1
  94:      3178.57 cm**-1
  95:      3186.19 cm**-1
  96:      3186.65 cm**-1
  97:      3189.84 cm**-1
  98:      3190.11 cm**-1
  99:      3202.39 cm**-1
 100:      3206.24 cm**-1
 101:      3313.08 cm**-1

IR SPECTRUM
-----------

 Mode   freq       eps      Int      T**2         TX        TY        TZ
       cm**-1   L/(mol*cm) km/mol    a.u.
----------------------------------------------------------------------------
  6:     31.32   0.000004    0.02  0.000035  ( 0.001289 -0.002233  0.005334)
  7:     47.66   0.000156    0.79  0.001024  ( 0.002074 -0.007975 -0.030917)
  8:     87.41   0.000063    0.32  0.000225  (-0.000139  0.007231 -0.013144)
  9:    106.99   0.000012    0.06  0.000035  (-0.000522  0.001128 -0.005820)
 10:    146.94   0.000020    0.10  0.000043  ( 0.000445 -0.002396  0.006096)
 11:    154.79   0.000081    0.41  0.000164  (-0.001616  0.002656  0.012409)
 12:    187.74   0.000004    0.02  0.000006  (-0.001195  0.001567 -0.001474)
 13:    215.14   0.000012    0.06  0.000018  (-0.003644  0.000518  0.002086)
 14:    229.68   0.000002    0.01  0.000003  ( 0.001640  0.000694 -0.000136)
 15:    248.28   0.000020    0.10  0.000025  (-0.001161 -0.000332 -0.004813)
 16:    263.09   0.000085    0.43  0.000101  (-0.003816 -0.003031  0.008782)
 17:    278.84   0.000208    1.05  0.000232  ( 0.001884 -0.005153  0.014224)
 18:    283.55   0.001908    9.64  0.002099  (-0.002983 -0.008036  0.045010)
 19:    290.54   0.000196    0.99  0.000211  ( 0.000573  0.004049 -0.013923)
 20:    292.99   0.000621    3.14  0.000662  ( 0.001929  0.000332 -0.025648)
 21:    319.63   0.000070    0.36  0.000069  ( 0.003123  0.007353 -0.002190)
 22:    322.58   0.000053    0.27  0.000051  ( 0.006381 -0.002336  0.002277)
 23:    396.72   0.000189    0.96  0.000149  (-0.003948  0.003022  0.011150)
 24:    411.58   0.000107    0.54  0.000082  (-0.008526  0.000159 -0.002965)
 25:    466.99   0.000062    0.31  0.000041  (-0.000409 -0.004782 -0.004262)
 26:    488.30   0.000003    0.01  0.000002  ( 0.001089  0.000343 -0.000713)
 27:    552.45   0.002098   10.60  0.001185  (-0.034421 -0.000546 -0.000476)
 28:    608.35   0.001082    5.47  0.000555  ( 0.002830 -0.022364  0.006835)
 29:    619.08   0.000787    3.98  0.000397  ( 0.019327  0.004797  0.000621)
 30:    674.21   0.005504   27.82  0.002548  (-0.001101 -0.004526  0.050258)
 31:    712.11   0.000067    0.34  0.000030  ( 0.005189 -0.000058 -0.001622)
 32:    754.54   0.000526    2.66  0.000218  (-0.000222  0.013320  0.006328)
 33:    802.05   0.000072    0.36  0.000028  (-0.005253  0.000585  0.000172)
 34:    871.96   0.002163   10.93  0.000774  (-0.001334 -0.009938  0.025954)
 35:    915.29   0.000124    0.63  0.000042  (-0.000014 -0.003827  0.005268)
 36:    928.31   0.000526    2.66  0.000177  (-0.013297 -0.000060  0.000337)
 37:    936.87   0.000678    3.43  0.000226  (-0.001646 -0.006253 -0.013570)
 38:    942.19   0.000581    2.94  0.000192  ( 0.001131 -0.003628 -0.013343)
 39:    965.79   0.000229    1.16  0.000074  (-0.001243 -0.003907 -0.007557)
 40:    969.83   0.000256    1.30  0.000082  ( 0.000896 -0.002248 -0.008753)
 41:    977.23   0.000006    0.03  0.000002  ( 0.000449 -0.000783 -0.001087)
 42:   1040.56   0.001482    7.49  0.000445  (-0.000554 -0.007589  0.019664)
 43:   1064.03   0.000151    0.76  0.000044  ( 0.006504  0.001398  0.000056)
 44:   1066.92   0.000005    0.02  0.000001  (-0.000178 -0.000557 -0.001029)
 45:   1098.84   0.000644    3.25  0.000183  ( 0.000674 -0.012815 -0.004253)
 46:   1132.30   0.004556   23.02  0.001256  ( 0.035348  0.000097  0.002463)
 47:   1156.96   0.000841    4.25  0.000227  ( 0.001419  0.014499  0.003822)
 48:   1171.75   0.001647    8.33  0.000439  (-0.011206  0.001025 -0.017667)
 49:   1177.18   0.003073   15.53  0.000815  ( 0.007628  0.002933 -0.027345)
 50:   1197.69   0.000069    0.35  0.000018  (-0.003926 -0.000415 -0.001533)
 51:   1221.42   0.001593    8.05  0.000407  (-0.008375  0.018043  0.003360)
 52:   1230.38   0.049742  251.37  0.012616  ( 0.112254  0.000869  0.003799)
 53:   1254.11   0.001173    5.93  0.000292  (-0.017073  0.000066 -0.000659)
 54:   1346.14   0.000244    1.23  0.000057  (-0.000642  0.007489  0.000202)
 55:   1350.89   0.000138    0.70  0.000032  (-0.001592  0.005234 -0.001385)
 56:   1353.09   0.000132    0.67  0.000030  ( 0.002042 -0.001150 -0.004993)
 57:   1378.11   0.002742   13.86  0.000621  (-0.024666 -0.003511  0.000415)
 58:   1390.53   0.000949    4.80  0.000213  ( 0.006058  0.012480 -0.004543)
 59:   1399.48   0.001633    8.25  0.000364  (-0.018491  0.002471  0.004015)
 60:   1402.55   0.005300   26.79  0.001179  (-0.000793 -0.000928  0.034320)
 61:   1405.01   0.001902    9.61  0.000422  ( 0.000283 -0.011164 -0.017254)
 62:   1408.13   0.002817   14.24  0.000624  (-0.002851 -0.022565  0.010348)
 63:   1417.74   0.006320   31.94  0.001391  ( 0.036253  0.007903  0.003791)
 64:   1426.32   0.012001   60.65  0.002626  (-0.006250  0.050798  0.002482)
 65:   1440.52   0.003837   19.39  0.000831  (-0.025532  0.002343  0.013181)
 66:   1442.08   0.005578   28.19  0.001207  (-0.010105 -0.000386 -0.033239)
 67:   1444.28   0.000983    4.97  0.000212  (-0.003244 -0.005096  0.013265)
 68:   1446.03   0.000639    3.23  0.000138  (-0.002959 -0.005738 -0.009812)
 69:   1448.86   0.000595    3.01  0.000128  (-0.011225 -0.001175 -0.000933)
 70:   1453.28   0.000643    3.25  0.000138  ( 0.002507 -0.008790 -0.007383)
 71:   1457.91   0.004099   20.71  0.000877  ( 0.020430 -0.020941 -0.004627)
 72:   1460.69   0.003516   17.77  0.000751  (-0.014621 -0.022161 -0.006799)
 73:   1462.63   0.004345   21.96  0.000927  (-0.006222 -0.026309  0.014005)
 74:   1464.18   0.002418   12.22  0.000515  (-0.006691  0.015032 -0.015644)
 75:   1475.07   0.000030    0.15  0.000006  ( 0.000793  0.001897  0.001442)
 76:   1478.81   0.000543    2.74  0.000115  (-0.001403 -0.008525  0.006314)
 77:   1516.82   0.000523    2.64  0.000108  (-0.010254  0.001527  0.000251)
 78:   1528.71   0.000391    1.98  0.000080  (-0.000620  0.008793  0.001467)
 79:   1654.32   0.035152  177.64  0.006631  (-0.081378 -0.000543 -0.002855)
 80:   1732.57   0.006432   32.51  0.001159  (-0.000739  0.033064  0.008050)
 81:   3068.34   0.002470   12.48  0.000251  ( 0.003481 -0.003154  0.015138)
 82:   3071.20   0.002905   14.68  0.000295  (-0.005847 -0.000815  0.016134)
 83:   3074.84   0.001889    9.54  0.000192  ( 0.000977 -0.011197 -0.008084)
 84:   3075.02   0.001790    9.04  0.000182  (-0.000112 -0.012466 -0.005119)
 85:   3077.67   0.002632   13.30  0.000267  ( 0.015727  0.004102  0.001649)
 86:   3079.26   0.001666    8.42  0.000169  ( 0.006838 -0.010724 -0.002666)
 87:   3138.35   0.000656    3.31  0.000065  (-0.005469  0.004169 -0.004231)
 88:   3148.24   0.000240    1.22  0.000024  (-0.003586 -0.001477  0.002965)
 89:   3170.38   0.000746    3.77  0.000073  ( 0.000071  0.000671 -0.008545)
 90:   3171.29   0.000575    2.91  0.000057  ( 0.002051 -0.000926 -0.007178)
 91:   3172.48   0.001520    7.68  0.000149  ( 0.003951  0.008910  0.007382)
 92:   3175.49   0.001204    6.08  0.000118  ( 0.004287 -0.007580 -0.006517)
 93:   3178.24   0.004642   23.46  0.000456  (-0.011401 -0.017231  0.005377)
 94:   3178.57   0.005458   27.58  0.000536  (-0.010056  0.018587 -0.009450)
 95:   3186.19   0.002267   11.45  0.000222  ( 0.012097 -0.002238 -0.008405)
 96:   3186.65   0.002190   11.07  0.000214  (-0.008861 -0.006490 -0.009687)
 97:   3189.84   0.002773   14.01  0.000271  (-0.015879 -0.003169  0.003016)
 98:   3190.11   0.002365   11.95  0.000231  ( 0.013232 -0.004781  0.005782)
 99:   3202.39   0.000530    2.68  0.000052  ( 0.007106 -0.001020 -0.000341)
100:   3206.24   0.000803    4.06  0.000078  ( 0.000855  0.008749  0.000934)
101:   3313.08   0.010266   51.88  0.000967  (-0.000217 -0.030553 -0.005786)

--------------------------
THERMOCHEMISTRY AT 298.15K
--------------------------

Temperature         ... 298.15 K
Pressure            ... 1.00 atm
Total Mass          ... 181.30 AMU

Throughout the following assumptions are being made:
  (1) The electronic state is orbitally nondegenerate
  (2) There are no thermally accessible electronically excited states
  (3) Hindered rotations indicated by low frequency modes are not
      treated as such but are treated as vibrations and this may
      cause some error
  (4) All equations used are the standard statistical mechanics
      equations for an ideal gas
  (5) All vibrations are strictly harmonic

freq.      31.32  E(vib)   ...       0.55
freq.      47.66  E(vib)   ...       0.53
freq.      87.41  E(vib)   ...       0.48
freq.     106.99  E(vib)   ...       0.45
freq.     146.94  E(vib)   ...       0.41
freq.     154.79  E(vib)   ...       0.40
freq.     187.74  E(vib)   ...       0.36
freq.     215.14  E(vib)   ...       0.34
freq.     229.68  E(vib)   ...       0.32
freq.     248.28  E(vib)   ...       0.31
freq.     263.09  E(vib)   ...       0.29
freq.     278.84  E(vib)   ...       0.28
freq.     283.55  E(vib)   ...       0.28
freq.     290.54  E(vib)   ...       0.27
freq.     292.99  E(vib)   ...       0.27
freq.     319.63  E(vib)   ...       0.25
freq.     322.58  E(vib)   ...       0.25
freq.     396.72  E(vib)   ...       0.20
freq.     411.58  E(vib)   ...       0.19
freq.     466.99  E(vib)   ...       0.16
freq.     488.30  E(vib)   ...       0.15
freq.     552.45  E(vib)   ...       0.12
freq.     608.35  E(vib)   ...       0.10
freq.     619.08  E(vib)   ...       0.09
freq.     674.21  E(vib)   ...       0.08
freq.     712.11  E(vib)   ...       0.07
freq.     754.54  E(vib)   ...       0.06
freq.     802.05  E(vib)   ...       0.05
freq.     871.96  E(vib)   ...       0.04
freq.     915.29  E(vib)   ...       0.03
freq.     928.31  E(vib)   ...       0.03
freq.     936.87  E(vib)   ...       0.03
freq.     942.19  E(vib)   ...       0.03
freq.     965.79  E(vib)   ...       0.03
freq.     969.83  E(vib)   ...       0.03
freq.     977.23  E(vib)   ...       0.03
freq.    1040.56  E(vib)   ...       0.02
freq.    1064.03  E(vib)   ...       0.02
freq.    1066.92  E(vib)   ...       0.02
freq.    1098.84  E(vib)   ...       0.02
freq.    1132.30  E(vib)   ...       0.01
freq.    1156.96  E(vib)   ...       0.01
freq.    1171.75  E(vib)   ...       0.01
freq.    1177.18  E(vib)   ...       0.01
freq.    1197.69  E(vib)   ...       0.01
freq.    1221.42  E(vib)   ...       0.01
freq.    1230.38  E(vib)   ...       0.01
freq.    1254.11  E(vib)   ...       0.01
freq.    1346.14  E(vib)   ...       0.01
freq.    1350.89  E(vib)   ...       0.01
freq.    1353.09  E(vib)   ...       0.01
freq.    1378.11  E(vib)   ...       0.01
freq.    1390.53  E(vib)   ...       0.00
freq.    1399.48  E(vib)   ...       0.00
freq.    1402.55  E(vib)   ...       0.00
freq.    1405.01  E(vib)   ...       0.00
freq.    1408.13  E(vib)   ...       0.00
freq.    1417.74  E(vib)   ...       0.00
freq.    1426.32  E(vib)   ...       0.00
freq.    1440.52  E(vib)   ...       0.00
freq.    1442.08  E(vib)   ...       0.00
freq.    1444.28  E(vib)   ...       0.00
freq.    1446.03  E(vib)   ...       0.00
freq.    1448.86  E(vib)   ...       0.00
freq.    1453.28  E(vib)   ...       0.00
freq.    1457.91  E(vib)   ...       0.00
freq.    1460.69  E(vib)   ...       0.00
freq.    1462.63  E(vib)   ...       0.00
freq.    1464.18  E(vib)   ...       0.00
freq.    1475.07  E(vib)   ...       0.00
freq.    1478.81  E(vib)   ...       0.00
freq.    1516.82  E(vib)   ...       0.00
freq.    1528.71  E(vib)   ...       0.00
freq.    1654.32  E(vib)   ...       0.00
freq.    1732.57  E(vib)   ...       0.00
freq.    3068.34  E(vib)   ...       0.00
freq.    3071.20  E(vib)   ...       0.00
freq.    3074.84  E(vib)   ...       0.00
freq.    3075.02  E(vib)   ...       0.00
freq.    3077.67  E(vib)   ...       0.00
freq.    3079.26  E(vib)   ...       0.00
freq.    3138.35  E(vib)   ...       0.00
freq.    3148.24  E(vib)   ...       0.00
freq.    3170.38  E(vib)   ...       0.00
freq.    3171.29  E(vib)   ...       0.00
freq.    3172.48  E(vib)   ...       0.00
freq.    3175.49  E(vib)   ...       0.00
freq.    3178.24  E(vib)   ...       0.00
freq.    3178.57  E(vib)   ...       0.00
freq.    3186.19  E(vib)   ...       0.00
freq.    3186.65  E(vib)   ...       0.00
freq.    3189.84  E(vib)   ...       0.00
freq.    3190.11  E(vib)   ...       0.00
freq.    3202.39  E(vib)   ...       0.00
freq.    3206.24  E(vib)   ...       0.00
freq.    3313.08  E(vib)   ...       0.00

------------
INNER ENERGY
------------

The inner energy is: U= E(el) + E(ZPE) + E(vib) + E(rot) + E(trans)
    E(el)   - is the total energy from the electronic structure calculation
              = E(kin-el) + E(nuc-el) + E(el-el) + E(nuc-nuc)
    E(ZPE)  - the the zero temperature vibrational energy from the frequency calculation
    E(vib)  - the the finite temperature correction to E(ZPE) due to population
              of excited vibrational states
    E(rot)  - is the rotational thermal energy
    E(trans)- is the translational thermal energy

Summary of contributions to the inner energy U:
Electronic energy                ...   -540.70568601 Eh
Zero point energy                ...      0.31154335 Eh     195.50 kcal/mol
Thermal vibrational correction   ...      0.01239602 Eh       7.78 kcal/mol
Thermal rotational correction    ...      0.00141627 Eh       0.89 kcal/mol
Thermal translational correction ...      0.00141627 Eh       0.89 kcal/mol
-----------------------------------------------------------------------
Total thermal energy                   -540.37891409 Eh

Summary of corrections to the electronic energy:
(perhaps to be used in another calculation)
Total thermal correction                  0.01522856 Eh       9.56 kcal/mol
Non-thermal (ZPE) correction              0.31154335 Eh     195.50 kcal/mol
-----------------------------------------------------------------------
Total correction                          0.32677191 Eh     205.05 kcal/mol

--------
ENTHALPY
--------

The enthalpy is H = U + kB*T
                kB is Boltzmann's constant
Total free energy                 ...   -540.37891409 Eh
Thermal Enthalpy correction       ...      0.00094421 Eh       0.59 kcal/mol
-----------------------------------------------------------------------
Total Enthalpy                    ...   -540.37796988 Eh

Note: Only C1 symmetry has been detected, increase convergence thresholds
      if your molecule has a higher symmetry. Symmetry factor of 1.0 is
      used for the rotational entropy correction.

Rotational constants in cm-1:     0.036219     0.019198     0.014672

                             ****ORCA TERMINATED NORMALLY****
TOTAL RUN TIME: 0 days 2 hours 47 minutes 17 seconds 933 msec
