                         Program Version 5.0.4 -  RELEASE  -
|  1> # ORCA 5.0.4 - /users/bwb16179/postgrad/2024_03/DFT_Crest_Conformers/Opt/deprot/7_deprot_aq_3.inp # write input file
|  2> # Basic Mode
|  3> #
|  4> ! Opt Freq wB97X Def2-SVP D4 SlowConv TightSCF Defgrid2 Def2/J RIJCOSX CPCM(Water)
|  5>
|  6>
|  7>
|  8> %maxcore 4500
|  9>
| 10> %geom
| 11> Maxiter 150
| 12> END
| 13>
| 14> * xyzfile 0 1 7_deprot_aq_3.xyz
| 15>
| 16>                          ****END OF INPUT****
 Total Charge           Charge          ....    0
 Multiplicity           Mult            ....    1
 Number of Electrons    NEL             ....  116
Dispersion correction           -0.005860316
FINAL SINGLE POINT ENERGY      -687.619436975590
Dispersion correction            ... Starting D4
Dispersion correction           -0.005811890
FINAL SINGLE POINT ENERGY      -687.624335373370
Dispersion correction            ... Starting D4
Dispersion correction           -0.005809827
FINAL SINGLE POINT ENERGY      -687.624490707645
Dispersion correction            ... Starting D4
FINAL SINGLE POINT ENERGY      -687.624509964324
FINAL SINGLE POINT ENERGY      -687.624529152604
FINAL SINGLE POINT ENERGY      -687.624572271439
FINAL SINGLE POINT ENERGY      -687.624785585165
FINAL SINGLE POINT ENERGY      -687.624936796429
FINAL SINGLE POINT ENERGY      -687.617364972998
FINAL SINGLE POINT ENERGY      -687.622740825237
FINAL SINGLE POINT ENERGY      -687.625972869677
FINAL SINGLE POINT ENERGY      -687.626311784182
FINAL SINGLE POINT ENERGY      -687.626335175804
FINAL SINGLE POINT ENERGY      -687.626358739765
Dispersion correction           -0.005812166
FINAL SINGLE POINT ENERGY      -687.626372763563
Dispersion correction            ... Starting D4
Dispersion correction           -0.005812415
FINAL SINGLE POINT ENERGY      -687.626376714575
Dispersion correction            ... Starting D4
                    ***********************HURRAY********************

CARTESIAN COORDINATES (ANGSTROEM)
---------------------------------
  N     -1.063446   -0.487809   -0.003321
  C      0.000674    0.361574    0.009509
  N      1.061911   -0.490238    0.029559
  C      0.673063   -1.827686    0.024929
  C     -0.677028   -1.826256    0.004506
  C     -2.419558   -0.046029   -0.033863
  C      2.419411   -0.052731    0.043579
  C     -2.762630    1.178831    0.544859
  C     -3.401797   -0.834370   -0.637288
  C      3.409491   -0.818551   -0.575393
  C      2.754599    1.144028    0.681727
  H      1.378460   -2.654910    0.066383
  H     -1.383172   -2.653408    0.025007
  C     -4.725992   -0.396403   -0.655015
  C     -5.073229    0.827371   -0.084780
  C     -4.085257    1.613142    0.511142
  C      4.735242   -0.385754   -0.549816
  C      5.075100    0.810742    0.080033
  C      4.079079    1.574100    0.691386
  H     -1.983144    1.779898    1.016860
  H     -3.135798   -1.784468   -1.107352
  H     -5.490170   -1.018181   -1.129591
  H     -6.111848    1.168530   -0.103295
  H     -4.347148    2.573022    0.965279
  H      3.146415   -1.745595   -1.091387
  H      4.335910    2.511655    1.192571
  H      1.967812    1.726198    1.165502
  H      5.506549   -0.988148   -1.037664
  H      6.114973    1.148262    0.095460

 Multiplicity           Mult            ....    1
 Number of Electrons    NEL             ....  116
 Basis Dimension        Dim             ....  298

ORBITAL ENERGIES
----------------

  NO   OCC          E(Eh)            E(eV)
   0   2.0000     -14.470662      -393.7667
   1   2.0000     -14.470478      -393.7617
   2   2.0000     -10.326044      -280.9859
   3   2.0000     -10.325734      -280.9775
   4   2.0000     -10.308481      -280.5080
   5   2.0000     -10.307871      -280.4914
   6   2.0000     -10.294434      -280.1258
   7   2.0000     -10.284249      -279.8486
   8   2.0000     -10.284102      -279.8446
   9   2.0000     -10.283177      -279.8195
  10   2.0000     -10.283077      -279.8168
  11   2.0000     -10.282634      -279.8047
  12   2.0000     -10.282534      -279.8020
  13   2.0000     -10.281325      -279.7691
  14   2.0000     -10.281008      -279.7605
  15   2.0000     -10.279091      -279.7083
  16   2.0000     -10.278834      -279.7013
  17   2.0000      -1.167683       -31.7743
  18   2.0000      -1.067142       -29.0384
  19   2.0000      -0.996361       -27.1124
  20   2.0000      -0.977897       -26.6099
  21   2.0000      -0.911576       -24.8053
  22   2.0000      -0.883679       -24.0461
  23   2.0000      -0.878290       -23.8995
  24   2.0000      -0.865870       -23.5615
  25   2.0000      -0.860270       -23.4091
  26   2.0000      -0.782067       -21.2811
  27   2.0000      -0.760896       -20.7050
  28   2.0000      -0.731678       -19.9100
  29   2.0000      -0.724469       -19.7138
  30   2.0000      -0.695484       -18.9251
  31   2.0000      -0.685790       -18.6613
  32   2.0000      -0.663095       -18.0437
  33   2.0000      -0.640237       -17.4217
  34   2.0000      -0.608452       -16.5568
  35   2.0000      -0.593258       -16.1434
  36   2.0000      -0.589106       -16.0304
  37   2.0000      -0.572388       -15.5755
  38   2.0000      -0.571531       -15.5522
  39   2.0000      -0.555289       -15.1102
  40   2.0000      -0.550793       -14.9878
  41   2.0000      -0.540658       -14.7121
  42   2.0000      -0.538082       -14.6420
  43   2.0000      -0.533495       -14.5171
  44   2.0000      -0.525389       -14.2966
  45   2.0000      -0.508528       -13.8377
  46   2.0000      -0.490668       -13.3518
  47   2.0000      -0.469738       -12.7822
  48   2.0000      -0.464479       -12.6391
  49   2.0000      -0.454786       -12.3754
  50   2.0000      -0.453511       -12.3407
  51   2.0000      -0.433864       -11.8060
  52   2.0000      -0.370867       -10.0918
  53   2.0000      -0.359059        -9.7705
  54   2.0000      -0.357735        -9.7345
  55   2.0000      -0.336089        -9.1454
  56   2.0000      -0.327555        -8.9132
  57   2.0000      -0.326641        -8.8884
  58   0.0000       0.047435         1.2908
  59   0.0000       0.061478         1.6729
  60   0.0000       0.064834         1.7642
  61   0.0000       0.066538         1.8106
  62   0.0000       0.123334         3.3561

MULLIKEN ATOMIC CHARGES
-----------------------
   0 N :   -0.189892
   1 C :   -0.137381
   2 N :   -0.189373
   3 C :    0.035779
   4 C :    0.034290
   5 C :    0.160727
   6 C :    0.158401
   7 C :   -0.047927
   8 C :   -0.072699
   9 C :   -0.069540
  10 C :   -0.046329
  11 H :    0.081161
  12 H :    0.081384
  13 C :   -0.030957
  14 C :   -0.023368
  15 C :   -0.027930
  16 C :   -0.031145
  17 C :   -0.023081
  18 C :   -0.028678
  19 H :    0.019992
  20 H :    0.036182
  21 H :    0.043321
  22 H :    0.040254
  23 H :    0.043035
  24 H :    0.036296
  25 H :    0.043171
  26 H :    0.020311
  27 H :    0.043488
  28 H :    0.040510
Sum of atomic charges:   -0.0000000

LOEWDIN ATOMIC CHARGES
----------------------
   0 N :    0.039474
   1 C :   -0.261101
   2 N :    0.040123
   3 C :   -0.016025
   4 C :   -0.016548
   5 C :    0.022529
   6 C :    0.021685
   7 C :   -0.036452
   8 C :   -0.045456
   9 C :   -0.044459
  10 C :   -0.035635
  11 H :    0.048184
  12 H :    0.048099
  13 C :   -0.024325
  14 C :   -0.040245
  15 C :   -0.025361
  16 C :   -0.024421
  17 C :   -0.039587
  18 C :   -0.025511
  19 H :    0.036625
  20 H :    0.043927
  21 H :    0.043066
  22 H :    0.040804
  23 H :    0.042704
  24 H :    0.044053
  25 H :    0.042766
  26 H :    0.037046
  27 H :    0.043129
  28 H :    0.040914

  Mayer bond orders larger than 0.100000
B(  0-N ,  1-C ) :   1.2219 B(  0-N ,  4-C ) :   1.0926 B(  0-N ,  5-C ) :   0.9424
B(  1-C ,  2-N ) :   1.2221 B(  2-N ,  3-C ) :   1.0926 B(  2-N ,  6-C ) :   0.9386
B(  3-C ,  4-C ) :   1.6650 B(  3-C , 11-H ) :   0.9819 B(  4-C , 12-H ) :   0.9819
B(  5-C ,  7-C ) :   1.3976 B(  5-C ,  8-C ) :   1.3892 B(  6-C ,  9-C ) :   1.3908
B(  6-C , 10-C ) :   1.3990 B(  7-C , 15-C ) :   1.3867 B(  7-C , 19-H ) :   0.9949
B(  8-C , 13-C ) :   1.3885 B(  8-C , 20-H ) :   0.9960 B(  9-C , 16-C ) :   1.3876
B(  9-C , 24-H ) :   0.9960 B( 10-C , 18-C ) :   1.3859 B( 10-C , 26-H ) :   0.9955
B( 13-C , 14-C ) :   1.3967 B( 13-C , 21-H ) :   0.9896 B( 14-C , 15-C ) :   1.3822
B( 14-C , 22-H ) :   0.9955 B( 15-C , 23-H ) :   0.9901 B( 16-C , 17-C ) :   1.3966
B( 16-C , 27-H ) :   0.9897 B( 17-C , 18-C ) :   1.3829 B( 17-C , 28-H ) :   0.9954
B( 18-C , 25-H ) :   0.9900

Dispersion correction           -0.005812657
FINAL SINGLE POINT ENERGY      -687.626379737362

DIPOLE MOMENT
-------------
                                X             Y             Z
Electronic contribution:      0.01407      -1.39334       0.02290
Nuclear contribution   :     -0.00065      -0.06114      -0.00155
                        -----------------------------------------
Total Dipole Moment    :      0.01341      -1.45448       0.02135
                        -----------------------------------------
Magnitude (a.u.)       :      1.45470
Magnitude (Debye)      :      3.69755

Dispersion correction in the Hessian             ... Starting D4

VIBRATIONAL FREQUENCIES
-----------------------

Scaling factor for frequencies =  1.000000000  (already applied!)

   0:         0.00 cm**-1
   1:         0.00 cm**-1
   2:         0.00 cm**-1
   3:         0.00 cm**-1
   4:         0.00 cm**-1
   5:         0.00 cm**-1
   6:        18.87 cm**-1
   7:        38.33 cm**-1
   8:        71.03 cm**-1
   9:        94.38 cm**-1
  10:       127.54 cm**-1
  11:       186.77 cm**-1
  12:       251.56 cm**-1
  13:       278.97 cm**-1
  14:       338.15 cm**-1
  15:       417.80 cm**-1
  16:       420.32 cm**-1
  17:       426.10 cm**-1
  18:       430.56 cm**-1
  19:       501.03 cm**-1
  20:       535.60 cm**-1
  21:       571.86 cm**-1
  22:       629.08 cm**-1
  23:       629.64 cm**-1
  24:       659.72 cm**-1
  25:       662.94 cm**-1
  26:       692.77 cm**-1
  27:       723.75 cm**-1
  28:       725.10 cm**-1
  29:       728.59 cm**-1
  30:       747.01 cm**-1
  31:       802.11 cm**-1
  32:       804.21 cm**-1
  33:       871.46 cm**-1
  34:       872.09 cm**-1
  35:       890.19 cm**-1
  36:       962.46 cm**-1
  37:       963.37 cm**-1
  38:       968.02 cm**-1
  39:       976.97 cm**-1
  40:      1021.58 cm**-1
  41:      1022.50 cm**-1
  42:      1025.23 cm**-1
  43:      1025.99 cm**-1
  44:      1049.93 cm**-1
  45:      1050.80 cm**-1
  46:      1058.66 cm**-1
  47:      1060.51 cm**-1
  48:      1091.20 cm**-1
  49:      1099.30 cm**-1
  50:      1111.13 cm**-1
  51:      1115.99 cm**-1
  52:      1134.86 cm**-1
  53:      1157.10 cm**-1
  54:      1157.71 cm**-1
  55:      1179.87 cm**-1
  56:      1180.38 cm**-1
  57:      1293.81 cm**-1
  58:      1305.27 cm**-1
  59:      1308.12 cm**-1
  60:      1352.48 cm**-1
  61:      1352.62 cm**-1
  62:      1358.00 cm**-1
  63:      1391.25 cm**-1
  64:      1432.96 cm**-1
  65:      1465.62 cm**-1
  66:      1506.49 cm**-1
  67:      1511.06 cm**-1
  68:      1556.15 cm**-1
  69:      1564.72 cm**-1
  70:      1662.48 cm**-1
  71:      1694.10 cm**-1
  72:      1699.75 cm**-1
  73:      1707.74 cm**-1
  74:      1711.41 cm**-1
  75:      3214.31 cm**-1
  76:      3214.42 cm**-1
  77:      3221.69 cm**-1
  78:      3222.01 cm**-1
  79:      3229.84 cm**-1
  80:      3231.04 cm**-1
  81:      3236.96 cm**-1
  82:      3237.68 cm**-1
  83:      3247.25 cm**-1
  84:      3248.41 cm**-1
  85:      3297.68 cm**-1
  86:      3317.90 cm**-1

IR SPECTRUM
-----------

 Mode   freq       eps      Int      T**2         TX        TY        TZ
       cm**-1   L/(mol*cm) km/mol    a.u.
----------------------------------------------------------------------------
  6:     18.87   0.000144    0.73  0.002377  ( 0.048655 -0.000621  0.003112)
  7:     38.33   0.000006    0.03  0.000052  (-0.001740 -0.006465 -0.002606)
  8:     71.03   0.000765    3.86  0.003360  ( 0.000480  0.014817 -0.056034)
  9:     94.38   0.002956   14.94  0.009772  ( 0.001322 -0.010279 -0.098311)
 10:    127.54   0.000060    0.30  0.000147  ( 0.012096 -0.000332 -0.000755)
 11:    186.77   0.000934    4.72  0.001560  ( 0.039455  0.000198  0.001767)
 12:    251.56   0.000193    0.98  0.000240  ( 0.000136 -0.006335 -0.014130)
 13:    278.97   0.000243    1.23  0.000272  ( 0.000154 -0.006852  0.015003)
 14:    338.15   0.000585    2.96  0.000540  (-0.023221  0.000092 -0.001015)
 15:    417.80   0.000190    0.96  0.000142  (-0.000010  0.006832  0.009758)
 16:    420.32   0.000000    0.00  0.000000  (-0.000201 -0.000212 -0.000253)
 17:    426.10   0.000017    0.09  0.000012  (-0.000426 -0.003370 -0.000974)
 18:    430.56   0.000079    0.40  0.000057  ( 0.007570 -0.000154 -0.000396)
 19:    501.03   0.002625   13.27  0.001635  ( 0.040397 -0.001247  0.001289)
 20:    535.60   0.004210   21.28  0.002453  ( 0.000947  0.029121 -0.040050)
 21:    571.86   0.001193    6.03  0.000651  (-0.025416 -0.002140  0.000687)
 22:    629.08   0.000176    0.89  0.000087  ( 0.001158 -0.009263 -0.000484)
 23:    629.64   0.000055    0.28  0.000027  ( 0.002117  0.004747 -0.000031)
 24:    659.72   0.000861    4.35  0.000407  ( 0.003002 -0.015386  0.012703)
 25:    662.94   0.000570    2.88  0.000268  (-0.016023 -0.002799  0.001908)
 26:    692.77   0.000728    3.68  0.000328  ( 0.000769 -0.017756  0.003487)
 27:    723.75   0.008033   40.59  0.003463  ( 0.018544  0.024745 -0.050073)
 28:    725.10   0.015810   79.90  0.006804  ( 0.012424 -0.038615  0.071825)
 29:    728.59   0.009582   48.42  0.004104  ( 0.064053  0.000879 -0.000551)
 30:    747.01   0.019113   96.59  0.007984  ( 0.000769  0.000679 -0.089350)
 31:    802.11   0.016845   85.13  0.006553  ( 0.004286  0.036526 -0.072118)
 32:    804.21   0.002171   10.97  0.000843  ( 0.026127 -0.007094  0.010470)
 33:    871.46   0.000031    0.16  0.000011  (-0.000678  0.003128  0.000874)
 34:    872.09   0.000029    0.15  0.000011  ( 0.000145  0.002934  0.001378)
 35:    890.19   0.000304    1.53  0.000106  ( 0.010314 -0.000037 -0.000168)
 36:    962.46   0.002290   11.57  0.000742  (-0.016636 -0.008714  0.019743)
 37:    963.37   0.002528   12.77  0.000819  ( 0.021021 -0.007935  0.017718)
 38:    968.02   0.004495   22.71  0.001449  ( 0.038060  0.000234 -0.000600)
 39:    976.97   0.000487    2.46  0.000156  (-0.001076 -0.012268  0.001990)
 40:   1021.58   0.000070    0.35  0.000021  (-0.004415  0.001316  0.000410)
 41:   1022.50   0.000063    0.32  0.000019  ( 0.001542  0.003819  0.001462)
 42:   1025.23   0.000030    0.15  0.000009  (-0.000254 -0.002259 -0.001988)
 43:   1025.99   0.000046    0.23  0.000014  ( 0.000425 -0.003206 -0.001884)
 44:   1049.93   0.000193    0.97  0.000057  (-0.006414  0.000440  0.004000)
 45:   1050.80   0.000165    0.83  0.000049  ( 0.005251  0.000164  0.004625)
 46:   1058.66   0.000844    4.27  0.000249  (-0.003959  0.015227  0.001155)
 47:   1060.51   0.003428   17.32  0.001009  ( 0.031736  0.000992  0.000759)
 48:   1091.20   0.001530    7.73  0.000437  (-0.003959  0.014535 -0.014509)
 49:   1099.30   0.002931   14.81  0.000832  ( 0.028652 -0.000651 -0.003262)
 50:   1111.13   0.010574   53.44  0.002970  ( 0.001866  0.051824  0.016754)
 51:   1115.99   0.001825    9.22  0.000510  ( 0.022582 -0.000579  0.000034)
 52:   1134.86   0.000738    3.73  0.000203  (-0.000256  0.013561  0.004348)
 53:   1157.10   0.000018    0.09  0.000005  ( 0.001877  0.001106  0.000369)
 54:   1157.71   0.000049    0.25  0.000013  (-0.003260  0.001408  0.000757)
 55:   1179.87   0.000220    1.11  0.000058  ( 0.000491  0.007321  0.002113)
 56:   1180.38   0.000063    0.32  0.000017  (-0.004034  0.000578  0.000064)
 57:   1293.81   0.008000   40.43  0.001929  (-0.043922  0.000066 -0.000534)
 58:   1305.27   0.002412   12.19  0.000577  ( 0.019173  0.014449  0.000432)
 59:   1308.12   0.008451   42.71  0.002016  (-0.044403  0.006605 -0.000825)
 60:   1352.48   0.000254    1.29  0.000059  ( 0.007457  0.001637  0.000640)
 61:   1352.62   0.000147    0.74  0.000034  (-0.005234  0.002343  0.000971)
 62:   1358.00   0.012507   63.21  0.002874  (-0.053605  0.000238 -0.000728)
 63:   1391.25   0.003391   17.14  0.000761  (-0.000604  0.027040  0.005387)
 64:   1432.96   0.000159    0.81  0.000035  (-0.003258  0.004159 -0.002607)
 65:   1465.62   0.033915  171.39  0.007221  ( 0.084967 -0.000330  0.001327)
 66:   1506.49   0.000863    4.36  0.000179  (-0.013329 -0.000273 -0.001015)
 67:   1511.06   0.001796    9.08  0.000371  ( 0.000078  0.015933  0.010823)
 68:   1556.15   0.088798  448.75  0.017807  ( 0.133410 -0.002116  0.002094)
 69:   1564.72   0.003843   19.42  0.000766  ( 0.006777  0.026814 -0.001240)
 70:   1662.48   0.002276   11.50  0.000427  (-0.000121  0.020022  0.005128)
 71:   1694.10   0.000964    4.87  0.000178  ( 0.013319  0.000362  0.000061)
 72:   1699.75   0.001566    7.91  0.000287  ( 0.000798  0.012087  0.011864)
 73:   1707.74   0.030558  154.43  0.005584  ( 0.074707 -0.001263  0.001080)
 74:   1711.41   0.002461   12.44  0.000449  ( 0.002026  0.021045  0.001330)
 75:   3214.31   0.000217    1.10  0.000021  (-0.004355 -0.001413 -0.000352)
 76:   3214.42   0.000131    0.66  0.000013  (-0.003022  0.001877  0.000290)
 77:   3221.69   0.001165    5.89  0.000113  ( 0.005650 -0.007428 -0.005073)
 78:   3222.01   0.001405    7.10  0.000136  ( 0.005035  0.008961  0.005516)
 79:   3229.84   0.002246   11.35  0.000217  ( 0.010526  0.009681  0.003530)
 80:   3231.04   0.002413   12.20  0.000233  ( 0.011905 -0.009283 -0.002282)
 81:   3236.96   0.001213    6.13  0.000117  ( 0.010592 -0.000727 -0.002062)
 82:   3237.68   0.000809    4.09  0.000078  ( 0.008344  0.001602  0.002410)
 83:   3247.25   0.000023    0.12  0.000002  ( 0.000749  0.000302  0.001258)
 84:   3248.41   0.000020    0.10  0.000002  ( 0.000791  0.000007 -0.001126)
 85:   3297.68   0.004022   20.33  0.000381  (-0.019502  0.000428 -0.000318)
 86:   3317.90   0.001302    6.58  0.000122  (-0.000605 -0.011038  0.000507)

--------------------------
THERMOCHEMISTRY AT 298.15K
--------------------------

Temperature         ... 298.15 K
Pressure            ... 1.00 atm
Total Mass          ... 220.28 AMU

Throughout the following assumptions are being made:
  (1) The electronic state is orbitally nondegenerate
  (2) There are no thermally accessible electronically excited states
  (3) Hindered rotations indicated by low frequency modes are not
      treated as such but are treated as vibrations and this may
      cause some error
  (4) All equations used are the standard statistical mechanics
      equations for an ideal gas
  (5) All vibrations are strictly harmonic

freq.      18.87  E(vib)   ...       0.57
freq.      38.33  E(vib)   ...       0.54
freq.      71.03  E(vib)   ...       0.50
freq.      94.38  E(vib)   ...       0.47
freq.     127.54  E(vib)   ...       0.43
freq.     186.77  E(vib)   ...       0.37
freq.     251.56  E(vib)   ...       0.30
freq.     278.97  E(vib)   ...       0.28
freq.     338.15  E(vib)   ...       0.24
freq.     417.80  E(vib)   ...       0.18
freq.     420.32  E(vib)   ...       0.18
freq.     426.10  E(vib)   ...       0.18
freq.     430.56  E(vib)   ...       0.18
freq.     501.03  E(vib)   ...       0.14
freq.     535.60  E(vib)   ...       0.12
freq.     571.86  E(vib)   ...       0.11
freq.     629.08  E(vib)   ...       0.09
freq.     629.64  E(vib)   ...       0.09
freq.     659.72  E(vib)   ...       0.08
freq.     662.94  E(vib)   ...       0.08
freq.     692.77  E(vib)   ...       0.07
freq.     723.75  E(vib)   ...       0.06
freq.     725.10  E(vib)   ...       0.06
freq.     728.59  E(vib)   ...       0.06
freq.     747.01  E(vib)   ...       0.06
freq.     802.11  E(vib)   ...       0.05
freq.     804.21  E(vib)   ...       0.05
freq.     871.46  E(vib)   ...       0.04
freq.     872.09  E(vib)   ...       0.04
freq.     890.19  E(vib)   ...       0.04
freq.     962.46  E(vib)   ...       0.03
freq.     963.37  E(vib)   ...       0.03
freq.     968.02  E(vib)   ...       0.03
freq.     976.97  E(vib)   ...       0.03
freq.    1021.58  E(vib)   ...       0.02
freq.    1022.50  E(vib)   ...       0.02
freq.    1025.23  E(vib)   ...       0.02
freq.    1025.99  E(vib)   ...       0.02
freq.    1049.93  E(vib)   ...       0.02
freq.    1050.80  E(vib)   ...       0.02
freq.    1058.66  E(vib)   ...       0.02
freq.    1060.51  E(vib)   ...       0.02
freq.    1091.20  E(vib)   ...       0.02
freq.    1099.30  E(vib)   ...       0.02
freq.    1111.13  E(vib)   ...       0.01
freq.    1115.99  E(vib)   ...       0.01
freq.    1134.86  E(vib)   ...       0.01
freq.    1157.10  E(vib)   ...       0.01
freq.    1157.71  E(vib)   ...       0.01
freq.    1179.87  E(vib)   ...       0.01
freq.    1180.38  E(vib)   ...       0.01
freq.    1293.81  E(vib)   ...       0.01
freq.    1305.27  E(vib)   ...       0.01
freq.    1308.12  E(vib)   ...       0.01
freq.    1352.48  E(vib)   ...       0.01
freq.    1352.62  E(vib)   ...       0.01
freq.    1358.00  E(vib)   ...       0.01
freq.    1391.25  E(vib)   ...       0.00
freq.    1432.96  E(vib)   ...       0.00
freq.    1465.62  E(vib)   ...       0.00
freq.    1506.49  E(vib)   ...       0.00
freq.    1511.06  E(vib)   ...       0.00
freq.    1556.15  E(vib)   ...       0.00
freq.    1564.72  E(vib)   ...       0.00
freq.    1662.48  E(vib)   ...       0.00
freq.    1694.10  E(vib)   ...       0.00
freq.    1699.75  E(vib)   ...       0.00
freq.    1707.74  E(vib)   ...       0.00
freq.    1711.41  E(vib)   ...       0.00
freq.    3214.31  E(vib)   ...       0.00
freq.    3214.42  E(vib)   ...       0.00
freq.    3221.69  E(vib)   ...       0.00
freq.    3222.01  E(vib)   ...       0.00
freq.    3229.84  E(vib)   ...       0.00
freq.    3231.04  E(vib)   ...       0.00
freq.    3236.96  E(vib)   ...       0.00
freq.    3237.68  E(vib)   ...       0.00
freq.    3247.25  E(vib)   ...       0.00
freq.    3248.41  E(vib)   ...       0.00
freq.    3297.68  E(vib)   ...       0.00
freq.    3317.90  E(vib)   ...       0.00

------------
INNER ENERGY
------------

The inner energy is: U= E(el) + E(ZPE) + E(vib) + E(rot) + E(trans)
    E(el)   - is the total energy from the electronic structure calculation
              = E(kin-el) + E(nuc-el) + E(el-el) + E(nuc-nuc)
    E(ZPE)  - the the zero temperature vibrational energy from the frequency calculation
    E(vib)  - the the finite temperature correction to E(ZPE) due to population
              of excited vibrational states
    E(rot)  - is the rotational thermal energy
    E(trans)- is the translational thermal energy

Summary of contributions to the inner energy U:
Electronic energy                ...   -687.62637974 Eh
Zero point energy                ...      0.23545851 Eh     147.75 kcal/mol
Thermal vibrational correction   ...      0.00973823 Eh       6.11 kcal/mol
Thermal rotational correction    ...      0.00141627 Eh       0.89 kcal/mol
Thermal translational correction ...      0.00141627 Eh       0.89 kcal/mol
-----------------------------------------------------------------------
Total thermal energy                   -687.37835045 Eh

Summary of corrections to the electronic energy:
(perhaps to be used in another calculation)
Total thermal correction                  0.01257078 Eh       7.89 kcal/mol
Non-thermal (ZPE) correction              0.23545851 Eh     147.75 kcal/mol
-----------------------------------------------------------------------
Total correction                          0.24802929 Eh     155.64 kcal/mol

--------
ENTHALPY
--------

The enthalpy is H = U + kB*T
                kB is Boltzmann's constant
Total free energy                 ...   -687.37835045 Eh
Thermal Enthalpy correction       ...      0.00094421 Eh       0.59 kcal/mol
-----------------------------------------------------------------------
Total Enthalpy                    ...   -687.37740624 Eh

Note: Only C1 symmetry has been detected, increase convergence thresholds
      if your molecule has a higher symmetry. Symmetry factor of 1.0 is
      used for the rotational entropy correction.

Note: Rotational entropy computed according to Herzberg
Infrared and Raman Spectra, Chapter V,1, Van Nostrand Reinhold, 1945
Point Group:  C1, Symmetry Number:   1
Rotational constants in cm-1:     0.054829     0.006935     0.006263

Vibrational entropy computed according to the QRRHO of S. Grimme
Chem.Eur.J. 2012 18 9955

-------
ENTROPY
-------

The entropy contributions are T*S = T*(S(el)+S(vib)+S(rot)+S(trans))

                             ****ORCA TERMINATED NORMALLY****
TOTAL RUN TIME: 0 days 3 hours 21 minutes 59 seconds 522 msec
