                         Program Version 5.0.4 -  RELEASE  -
|  1> # ORCA 5.0.4 - /users/bwb16179/postgrad/2024_03/DFT_Crest_Conformers/Opt/deprot/7_deprot_aq_2.inp # write input file
|  2> # Basic Mode
|  3> #
|  4> ! Opt Freq wB97X Def2-SVP D4 SlowConv TightSCF Defgrid2 Def2/J RIJCOSX CPCM(Water)
|  5>
|  6>
|  7>
|  8> %maxcore 4500
|  9>
| 10> %geom
| 11> Maxiter 150
| 12> END
| 13>
| 14> * xyzfile 0 1 7_deprot_aq_2.xyz
| 15>
| 16>                          ****END OF INPUT****
 Total Charge           Charge          ....    0
 Multiplicity           Mult            ....    1
 Number of Electrons    NEL             ....  116
Dispersion correction           -0.005861615
FINAL SINGLE POINT ENERGY      -687.620168318564
Dispersion correction            ... Starting D4
Dispersion correction           -0.005811731
FINAL SINGLE POINT ENERGY      -687.625180833979
Dispersion correction            ... Starting D4
Dispersion correction           -0.005808249
FINAL SINGLE POINT ENERGY      -687.625432648349
Dispersion correction            ... Starting D4
FINAL SINGLE POINT ENERGY      -687.625622852215
FINAL SINGLE POINT ENERGY      -687.625849072388
FINAL SINGLE POINT ENERGY      -687.626172130069
FINAL SINGLE POINT ENERGY      -687.626389339249
FINAL SINGLE POINT ENERGY      -687.626474926897
FINAL SINGLE POINT ENERGY      -687.626503225751
Dispersion correction           -0.005811526
FINAL SINGLE POINT ENERGY      -687.626516906650
Dispersion correction            ... Starting D4
Dispersion correction           -0.005811515
FINAL SINGLE POINT ENERGY      -687.626521009933
Dispersion correction            ... Starting D4
                    ***********************HURRAY********************

CARTESIAN COORDINATES (ANGSTROEM)
---------------------------------
  N     -1.062501   -0.469847   -0.109074
  C     -0.001028    0.358833    0.086861
  N      1.061689   -0.480418   -0.057684
  C      0.674110   -1.789128   -0.338595
  C     -0.675612   -1.782184   -0.371976
  C     -2.419788   -0.034380   -0.060992
  C      2.419256   -0.055761    0.051346
  C     -2.793320    0.976445    0.827666
  C     -3.372246   -0.620900   -0.896954
  C      3.419111   -0.709399   -0.672292
  C      2.746644    1.014853    0.887306
  H      1.379605   -2.608028   -0.461090
  H     -1.385130   -2.591965   -0.529155
  C     -4.699285   -0.196114   -0.838031
  C     -5.077220    0.817535    0.041844
  C     -4.118395    1.403495    0.870119
  C      4.745035   -0.293725   -0.552605
  C      5.076869    0.778158    0.274897
  C      4.071472    1.431976    0.989329
  H     -2.036822    1.417886    1.479772
  H     -3.077267   -1.400067   -1.604565
  H     -5.440678   -0.657976   -1.496049
  H     -6.117556    1.151589    0.082702
  H     -4.405468    2.196192    1.566680
  H      3.164931   -1.535370   -1.341247
  H      4.321117    2.272381    1.643162
  H      1.953216    1.511834    1.448787
  H      5.522999   -0.810884   -1.121123
  H      6.116676    1.104496    0.363035

 Multiplicity           Mult            ....    1
 Number of Electrons    NEL             ....  116
 Basis Dimension        Dim             ....  298

ORBITAL ENERGIES
----------------

  NO   OCC          E(Eh)            E(eV)
   0   2.0000     -14.470428      -393.7604
   1   2.0000     -14.470162      -393.7531
   2   2.0000     -10.325887      -280.9817
   3   2.0000     -10.325480      -280.9706
   4   2.0000     -10.308316      -280.5035
   5   2.0000     -10.307705      -280.4869
   6   2.0000     -10.294481      -280.1271
   7   2.0000     -10.284243      -279.8485
   8   2.0000     -10.283975      -279.8412
   9   2.0000     -10.283214      -279.8205
  10   2.0000     -10.283041      -279.8158
  11   2.0000     -10.282703      -279.8066
  12   2.0000     -10.282488      -279.8007
  13   2.0000     -10.281648      -279.7779
  14   2.0000     -10.281035      -279.7612
  15   2.0000     -10.279293      -279.7138
  16   2.0000     -10.278835      -279.7013
  17   2.0000      -1.167427       -31.7673
  18   2.0000      -1.066909       -29.0321
  19   2.0000      -0.996302       -27.1108
  20   2.0000      -0.977822       -26.6079
  21   2.0000      -0.911394       -24.8003
  22   2.0000      -0.883531       -24.0421
  23   2.0000      -0.878270       -23.8989
  24   2.0000      -0.865979       -23.5645
  25   2.0000      -0.860168       -23.4063
  26   2.0000      -0.781982       -21.2788
  27   2.0000      -0.760430       -20.6924
  28   2.0000      -0.731708       -19.9108
  29   2.0000      -0.724493       -19.7145
  30   2.0000      -0.695743       -18.9321
  31   2.0000      -0.685803       -18.6616
  32   2.0000      -0.662761       -18.0347
  33   2.0000      -0.640166       -17.4198
  34   2.0000      -0.608546       -16.5594
  35   2.0000      -0.593411       -16.1475
  36   2.0000      -0.588795       -16.0219
  37   2.0000      -0.572539       -15.5796
  38   2.0000      -0.571175       -15.5425
  39   2.0000      -0.554876       -15.0989
  40   2.0000      -0.550724       -14.9860
  41   2.0000      -0.540895       -14.7185
  42   2.0000      -0.538105       -14.6426
  43   2.0000      -0.533564       -14.5190
  44   2.0000      -0.525444       -14.2981
  45   2.0000      -0.507666       -13.8143
  46   2.0000      -0.490724       -13.3533
  47   2.0000      -0.469720       -12.7817
  48   2.0000      -0.464481       -12.6392
  49   2.0000      -0.455099       -12.3839
  50   2.0000      -0.453397       -12.3376
  51   2.0000      -0.432908       -11.7800
  52   2.0000      -0.370569       -10.0837
  53   2.0000      -0.359103        -9.7717
  54   2.0000      -0.357704        -9.7336
  55   2.0000      -0.336205        -9.1486
  56   2.0000      -0.328166        -8.9299
  57   2.0000      -0.326722        -8.8906
  58   0.0000       0.047857         1.3023
  59   0.0000       0.061898         1.6843
  60   0.0000       0.064751         1.7620
  61   0.0000       0.066366         1.8059
  62   0.0000       0.122842         3.3427

MULLIKEN ATOMIC CHARGES
-----------------------
   0 N :   -0.190325
   1 C :   -0.137563
   2 N :   -0.191602
   3 C :    0.034343
   4 C :    0.036630
   5 C :    0.157409
   6 C :    0.160930
   7 C :   -0.046324
   8 C :   -0.066898
   9 C :   -0.072299
  10 C :   -0.048170
  11 H :    0.081421
  12 H :    0.080929
  13 C :   -0.031874
  14 C :   -0.022629
  15 C :   -0.028767
  16 C :   -0.030766
  17 C :   -0.023539
  18 C :   -0.027905
  19 H :    0.020592
  20 H :    0.036343
  21 H :    0.043688
  22 H :    0.040681
  23 H :    0.043121
  24 H :    0.036183
  25 H :    0.042924
  26 H :    0.019895
  27 H :    0.043337
  28 H :    0.040237
Sum of atomic charges:   -0.0000000

LOEWDIN ATOMIC CHARGES
----------------------
   0 N :    0.040061
   1 C :   -0.262743
   2 N :    0.039032
   3 C :   -0.016688
   4 C :   -0.015905
   5 C :    0.020994
   6 C :    0.022395
   7 C :   -0.035317
   8 C :   -0.043459
   9 C :   -0.045214
  10 C :   -0.036385
  11 H :    0.048164
  12 H :    0.048265
  13 C :   -0.024611
  14 C :   -0.038987
  15 C :   -0.025395
  16 C :   -0.024285
  17 C :   -0.040208
  18 C :   -0.025386
  19 H :    0.037428
  20 H :    0.044123
  21 H :    0.043177
  22 H :    0.040989
  23 H :    0.042781
  24 H :    0.043938
  25 H :    0.042668
  26 H :    0.036705
  27 H :    0.043091
  28 H :    0.040774

  Mayer bond orders larger than 0.100000
B(  0-N ,  1-C ) :   1.2222 B(  0-N ,  4-C ) :   1.0925 B(  0-N ,  5-C ) :   0.9354
B(  1-C ,  2-N ) :   1.2224 B(  2-N ,  3-C ) :   1.0927 B(  2-N ,  6-C ) :   0.9417
B(  3-C ,  4-C ) :   1.6641 B(  3-C , 11-H ) :   0.9821 B(  4-C , 12-H ) :   0.9822
B(  5-C ,  7-C ) :   1.4000 B(  5-C ,  8-C ) :   1.3914 B(  6-C ,  9-C ) :   1.3889
B(  6-C , 10-C ) :   1.3981 B(  7-C , 15-C ) :   1.3856 B(  7-C , 19-H ) :   0.9962
B(  8-C , 13-C ) :   1.3883 B(  8-C , 20-H ) :   0.9961 B(  9-C , 16-C ) :   1.3889
B(  9-C , 24-H ) :   0.9960 B( 10-C , 18-C ) :   1.3862 B( 10-C , 26-H ) :   0.9951
B( 13-C , 14-C ) :   1.3953 B( 13-C , 21-H ) :   0.9896 B( 14-C , 15-C ) :   1.3839
B( 14-C , 22-H ) :   0.9955 B( 15-C , 23-H ) :   0.9900 B( 16-C , 17-C ) :   1.3960
B( 16-C , 27-H ) :   0.9896 B( 17-C , 18-C ) :   1.3826 B( 17-C , 28-H ) :   0.9956
B( 18-C , 25-H ) :   0.9902

Dispersion correction           -0.005811763
FINAL SINGLE POINT ENERGY      -687.626524332997

DIPOLE MOMENT
-------------
                                X             Y             Z
Electronic contribution:     -0.02630      -1.35403      -0.24542
Nuclear contribution   :     -0.00060      -0.07851      -0.03708
                        -----------------------------------------
Total Dipole Moment    :     -0.02691      -1.43254      -0.28250
                        -----------------------------------------
Magnitude (a.u.)       :      1.46038
Magnitude (Debye)      :      3.71199

Dispersion correction in the Hessian             ... Starting D4

VIBRATIONAL FREQUENCIES
-----------------------

Scaling factor for frequencies =  1.000000000  (already applied!)

   0:         0.00 cm**-1
   1:         0.00 cm**-1
   2:         0.00 cm**-1
   3:         0.00 cm**-1
   4:         0.00 cm**-1
   5:         0.00 cm**-1
   6:        15.82 cm**-1
   7:        37.86 cm**-1
   8:        73.96 cm**-1
   9:        99.15 cm**-1
  10:       127.03 cm**-1
  11:       185.60 cm**-1
  12:       251.39 cm**-1
  13:       279.66 cm**-1
  14:       340.00 cm**-1
  15:       417.59 cm**-1
  16:       421.08 cm**-1
  17:       426.48 cm**-1
  18:       431.13 cm**-1
  19:       500.35 cm**-1
  20:       536.48 cm**-1
  21:       573.02 cm**-1
  22:       628.63 cm**-1
  23:       629.33 cm**-1
  24:       661.20 cm**-1
  25:       664.75 cm**-1
  26:       692.95 cm**-1
  27:       724.59 cm**-1
  28:       725.69 cm**-1
  29:       729.05 cm**-1
  30:       756.36 cm**-1
  31:       803.15 cm**-1
  32:       805.83 cm**-1
  33:       870.67 cm**-1
  34:       873.06 cm**-1
  35:       897.34 cm**-1
  36:       962.87 cm**-1
  37:       963.77 cm**-1
  38:       968.09 cm**-1
  39:       977.71 cm**-1
  40:      1021.47 cm**-1
  41:      1021.88 cm**-1
  42:      1024.92 cm**-1
  43:      1027.37 cm**-1
  44:      1050.90 cm**-1
  45:      1051.71 cm**-1
  46:      1058.67 cm**-1
  47:      1061.29 cm**-1
  48:      1093.12 cm**-1
  49:      1098.02 cm**-1
  50:      1111.39 cm**-1
  51:      1117.75 cm**-1
  52:      1135.99 cm**-1
  53:      1154.93 cm**-1
  54:      1155.62 cm**-1
  55:      1179.07 cm**-1
  56:      1183.17 cm**-1
  57:      1294.53 cm**-1
  58:      1306.36 cm**-1
  59:      1308.47 cm**-1
  60:      1351.83 cm**-1
  61:      1352.63 cm**-1
  62:      1357.58 cm**-1
  63:      1390.38 cm**-1
  64:      1433.54 cm**-1
  65:      1465.94 cm**-1
  66:      1505.75 cm**-1
  67:      1510.28 cm**-1
  68:      1556.45 cm**-1
  69:      1565.07 cm**-1
  70:      1663.06 cm**-1
  71:      1693.83 cm**-1
  72:      1699.46 cm**-1
  73:      1707.98 cm**-1
  74:      1711.65 cm**-1
  75:      3213.87 cm**-1
  76:      3214.20 cm**-1
  77:      3221.38 cm**-1
  78:      3221.97 cm**-1
  79:      3229.74 cm**-1
  80:      3230.66 cm**-1
  81:      3236.50 cm**-1
  82:      3237.55 cm**-1
  83:      3245.24 cm**-1
  84:      3248.59 cm**-1
  85:      3297.41 cm**-1
  86:      3317.81 cm**-1

IR SPECTRUM
-----------

 Mode   freq       eps      Int      T**2         TX        TY        TZ
       cm**-1   L/(mol*cm) km/mol    a.u.
----------------------------------------------------------------------------
  6:     15.82   0.000161    0.82  0.003185  (-0.055325  0.003906 -0.010411)
  7:     37.86   0.000017    0.09  0.000143  (-0.010426 -0.003838  0.004436)
  8:     73.96   0.000526    2.66  0.002217  (-0.002636 -0.024209  0.040304)
  9:     99.15   0.003076   15.54  0.009681  ( 0.003893  0.012127 -0.097563)
 10:    127.03   0.000051    0.26  0.000125  (-0.011115  0.000013 -0.001243)
 11:    185.60   0.000887    4.48  0.001491  (-0.038614  0.000309 -0.000025)
 12:    251.39   0.000189    0.95  0.000234  ( 0.001669 -0.003301 -0.014846)
 13:    279.66   0.000260    1.31  0.000290  ( 0.000172 -0.009528  0.014111)
 14:    340.00   0.000614    3.10  0.000564  (-0.023731 -0.000421  0.000410)
 15:    417.59   0.000237    1.20  0.000177  (-0.000297 -0.005321 -0.012185)
 16:    421.08   0.000002    0.01  0.000001  ( 0.000703 -0.000443  0.000659)
 17:    426.48   0.000009    0.05  0.000007  ( 0.000254  0.002500  0.000655)
 18:    431.13   0.000080    0.41  0.000058  ( 0.007501 -0.001355  0.000180)
 19:    500.35   0.002605   13.16  0.001625  ( 0.040234  0.002432  0.000105)
 20:    536.48   0.004257   21.51  0.002476  (-0.000083  0.037522 -0.032681)
 21:    573.02   0.001080    5.46  0.000588  ( 0.023932 -0.003672  0.001338)
 22:    628.63   0.000175    0.88  0.000087  (-0.000804 -0.008922 -0.002560)
 23:    629.33   0.000036    0.18  0.000018  ( 0.001782 -0.003757 -0.000877)
 24:    661.20   0.001064    5.38  0.000502  ( 0.004909  0.018732 -0.011277)
 25:    664.75   0.000635    3.21  0.000298  ( 0.016248 -0.005048  0.002921)
 26:    692.95   0.000719    3.63  0.000324  (-0.000646 -0.017972 -0.000657)
 27:    724.59   0.006649   33.60  0.002863  ( 0.016642 -0.031230  0.040139)
 28:    725.69   0.016504   83.40  0.007097  ( 0.013305  0.055766 -0.061726)
 29:    729.05   0.009360   47.30  0.004006  ( 0.063279 -0.000423  0.001396)
 30:    756.36   0.019692   99.51  0.008125  ( 0.003071  0.019100 -0.088036)
 31:    803.15   0.015567   78.67  0.006048  ( 0.011492  0.050830 -0.057730)
 32:    805.83   0.003578   18.08  0.001386  ( 0.024955 -0.015232  0.023041)
 33:    870.67   0.000038    0.19  0.000014  (-0.000067  0.003274  0.001722)
 34:    873.06   0.000030    0.15  0.000011  ( 0.000269  0.002910  0.001418)
 35:    897.34   0.000318    1.61  0.000111  ( 0.010410  0.000503  0.001451)
 36:    962.87   0.002240   11.32  0.000726  ( 0.013215 -0.013300  0.019351)
 37:    963.77   0.002624   13.26  0.000850  ( 0.024960  0.010091 -0.011175)
 38:    968.09   0.004160   21.02  0.001341  ( 0.036535 -0.001184  0.002172)
 39:    977.71   0.000543    2.75  0.000173  ( 0.000337 -0.013165  0.000153)
 40:   1021.47   0.000124    0.63  0.000038  ( 0.006145  0.000242 -0.000057)
 41:   1021.88   0.000088    0.45  0.000027  (-0.000967  0.004325  0.002702)
 42:   1024.92   0.000042    0.21  0.000013  ( 0.000980 -0.001702 -0.002982)
 43:   1027.37   0.000093    0.47  0.000028  (-0.002989 -0.003882 -0.002089)
 44:   1050.90   0.000149    0.75  0.000044  (-0.005372 -0.001687  0.003521)
 45:   1051.71   0.000183    0.92  0.000054  ( 0.006371  0.000012  0.003693)
 46:   1058.67   0.001032    5.21  0.000304  (-0.012088  0.012480  0.001515)
 47:   1061.29   0.002858   14.44  0.000840  ( 0.028468  0.005069  0.002031)
 48:   1093.12   0.001106    5.59  0.000316  ( 0.003490  0.010686 -0.013760)
 49:   1098.02   0.002682   13.56  0.000762  ( 0.027069  0.002092  0.005024)
 50:   1111.39   0.010867   54.92  0.003051  (-0.000315  0.048693  0.026082)
 51:   1117.75   0.002202   11.13  0.000615  ( 0.024470 -0.003576 -0.001772)
 52:   1135.99   0.000952    4.81  0.000262  (-0.000467  0.014172  0.007775)
 53:   1154.93   0.000035    0.18  0.000009  (-0.001347 -0.002500 -0.001191)
 54:   1155.62   0.000102    0.52  0.000028  (-0.003386  0.003678  0.001620)
 55:   1179.07   0.000147    0.74  0.000039  (-0.003005  0.004866  0.002503)
 56:   1183.17   0.000226    1.14  0.000060  ( 0.003395  0.006079  0.003347)
 57:   1294.53   0.006155   31.11  0.001484  (-0.038492 -0.000861 -0.001179)
 58:   1306.36   0.001200    6.06  0.000287  ( 0.006499 -0.015283 -0.003276)
 59:   1308.47   0.011428   57.75  0.002725  ( 0.052158  0.001609  0.001562)
 60:   1351.83   0.000076    0.39  0.000018  (-0.002875  0.002289  0.002031)
 61:   1352.63   0.000501    2.53  0.000116  (-0.010673  0.001282  0.000264)
 62:   1357.58   0.011802   59.64  0.002713  (-0.052011 -0.001708 -0.002217)
 63:   1390.38   0.003429   17.33  0.000770  ( 0.000188  0.025393  0.011174)
 64:   1433.54   0.000212    1.07  0.000046  ( 0.004605  0.004822 -0.001260)
 65:   1465.94   0.033846  171.05  0.007205  ( 0.084854  0.000069  0.002195)
 66:   1505.75   0.000616    3.12  0.000128  (-0.011074  0.000624  0.002176)
 67:   1510.28   0.001877    9.49  0.000388  ( 0.002410  0.013422  0.014212)
 68:   1556.45   0.087217  440.76  0.017487  ( 0.132201 -0.000696  0.003035)
 69:   1565.07   0.003495   17.66  0.000697  ( 0.001799  0.026063  0.003779)
 70:   1663.06   0.002156   10.90  0.000405  ( 0.000181  0.017991  0.008994)
 71:   1693.83   0.000936    4.73  0.000172  ( 0.013040 -0.000518  0.001433)
 72:   1699.46   0.001590    8.03  0.000292  (-0.000596  0.009267  0.014341)
 73:   1707.98   0.029777  150.48  0.005441  ( 0.073742 -0.001083  0.001214)
 74:   1711.65   0.002433   12.30  0.000444  ( 0.004734  0.019784  0.005456)
 75:   3213.87   0.000201    1.01  0.000019  (-0.004227  0.001254  0.000174)
 76:   3214.20   0.000152    0.77  0.000015  ( 0.003264  0.001861  0.000824)
 77:   3221.38   0.001174    5.93  0.000114  ( 0.005111  0.006103  0.007094)
 78:   3221.97   0.001342    6.78  0.000130  (-0.005244  0.007344  0.006964)
 79:   3229.74   0.002342   11.83  0.000226  ( 0.011179 -0.008698 -0.005064)
 80:   3230.66   0.002558   12.93  0.000247  (-0.011843 -0.009103 -0.004898)
 81:   3236.50   0.001164    5.88  0.000112  ( 0.010148  0.000529  0.002991)
 82:   3237.55   0.000875    4.42  0.000084  (-0.008745  0.001445  0.002394)
 83:   3245.24   0.000046    0.23  0.000004  ( 0.000970 -0.000577 -0.001785)
 84:   3248.59   0.000019    0.09  0.000002  (-0.000558  0.000310 -0.001174)
 85:   3297.41   0.004162   21.03  0.000394  (-0.019827 -0.000584 -0.000664)
 86:   3317.81   0.001402    7.09  0.000132  (-0.001109  0.011257  0.001978)

--------------------------
THERMOCHEMISTRY AT 298.15K
--------------------------

Temperature         ... 298.15 K
Pressure            ... 1.00 atm
Total Mass          ... 220.28 AMU

Throughout the following assumptions are being made:
  (1) The electronic state is orbitally nondegenerate
  (2) There are no thermally accessible electronically excited states
  (3) Hindered rotations indicated by low frequency modes are not
      treated as such but are treated as vibrations and this may
      cause some error
  (4) All equations used are the standard statistical mechanics
      equations for an ideal gas
  (5) All vibrations are strictly harmonic

freq.      15.82  E(vib)   ...       0.57
freq.      37.86  E(vib)   ...       0.54
freq.      73.96  E(vib)   ...       0.49
freq.      99.15  E(vib)   ...       0.46
freq.     127.03  E(vib)   ...       0.43
freq.     185.60  E(vib)   ...       0.37
freq.     251.39  E(vib)   ...       0.30
freq.     279.66  E(vib)   ...       0.28
freq.     340.00  E(vib)   ...       0.23
freq.     417.59  E(vib)   ...       0.18
freq.     421.08  E(vib)   ...       0.18
freq.     426.48  E(vib)   ...       0.18
freq.     431.13  E(vib)   ...       0.18
freq.     500.35  E(vib)   ...       0.14
freq.     536.48  E(vib)   ...       0.12
freq.     573.02  E(vib)   ...       0.11
freq.     628.63  E(vib)   ...       0.09
freq.     629.33  E(vib)   ...       0.09
freq.     661.20  E(vib)   ...       0.08
freq.     664.75  E(vib)   ...       0.08
freq.     692.95  E(vib)   ...       0.07
freq.     724.59  E(vib)   ...       0.06
freq.     725.69  E(vib)   ...       0.06
freq.     729.05  E(vib)   ...       0.06
freq.     756.36  E(vib)   ...       0.06
freq.     803.15  E(vib)   ...       0.05
freq.     805.83  E(vib)   ...       0.05
freq.     870.67  E(vib)   ...       0.04
freq.     873.06  E(vib)   ...       0.04
freq.     897.34  E(vib)   ...       0.03
freq.     962.87  E(vib)   ...       0.03
freq.     963.77  E(vib)   ...       0.03
freq.     968.09  E(vib)   ...       0.03
freq.     977.71  E(vib)   ...       0.03
freq.    1021.47  E(vib)   ...       0.02
freq.    1021.88  E(vib)   ...       0.02
freq.    1024.92  E(vib)   ...       0.02
freq.    1027.37  E(vib)   ...       0.02
freq.    1050.90  E(vib)   ...       0.02
freq.    1051.71  E(vib)   ...       0.02
freq.    1058.67  E(vib)   ...       0.02
freq.    1061.29  E(vib)   ...       0.02
freq.    1093.12  E(vib)   ...       0.02
freq.    1098.02  E(vib)   ...       0.02
freq.    1111.39  E(vib)   ...       0.01
freq.    1117.75  E(vib)   ...       0.01
freq.    1135.99  E(vib)   ...       0.01
freq.    1154.93  E(vib)   ...       0.01
freq.    1155.62  E(vib)   ...       0.01
freq.    1179.07  E(vib)   ...       0.01
freq.    1183.17  E(vib)   ...       0.01
freq.    1294.53  E(vib)   ...       0.01
freq.    1306.36  E(vib)   ...       0.01
freq.    1308.47  E(vib)   ...       0.01
freq.    1351.83  E(vib)   ...       0.01
freq.    1352.63  E(vib)   ...       0.01
freq.    1357.58  E(vib)   ...       0.01
freq.    1390.38  E(vib)   ...       0.00
freq.    1433.54  E(vib)   ...       0.00
freq.    1465.94  E(vib)   ...       0.00
freq.    1505.75  E(vib)   ...       0.00
freq.    1510.28  E(vib)   ...       0.00
freq.    1556.45  E(vib)   ...       0.00
freq.    1565.07  E(vib)   ...       0.00
freq.    1663.06  E(vib)   ...       0.00
freq.    1693.83  E(vib)   ...       0.00
freq.    1699.46  E(vib)   ...       0.00
freq.    1707.98  E(vib)   ...       0.00
freq.    1711.65  E(vib)   ...       0.00
freq.    3213.87  E(vib)   ...       0.00
freq.    3214.20  E(vib)   ...       0.00
freq.    3221.38  E(vib)   ...       0.00
freq.    3221.97  E(vib)   ...       0.00
freq.    3229.74  E(vib)   ...       0.00
freq.    3230.66  E(vib)   ...       0.00
freq.    3236.50  E(vib)   ...       0.00
freq.    3237.55  E(vib)   ...       0.00
freq.    3245.24  E(vib)   ...       0.00
freq.    3248.59  E(vib)   ...       0.00
freq.    3297.41  E(vib)   ...       0.00
freq.    3317.81  E(vib)   ...       0.00

------------
INNER ENERGY
------------

The inner energy is: U= E(el) + E(ZPE) + E(vib) + E(rot) + E(trans)
    E(el)   - is the total energy from the electronic structure calculation
              = E(kin-el) + E(nuc-el) + E(el-el) + E(nuc-nuc)
    E(ZPE)  - the the zero temperature vibrational energy from the frequency calculation
    E(vib)  - the the finite temperature correction to E(ZPE) due to population
              of excited vibrational states
    E(rot)  - is the rotational thermal energy
    E(trans)- is the translational thermal energy

Summary of contributions to the inner energy U:
Electronic energy                ...   -687.62652433 Eh
Zero point energy                ...      0.23553660 Eh     147.80 kcal/mol
Thermal vibrational correction   ...      0.00972071 Eh       6.10 kcal/mol
Thermal rotational correction    ...      0.00141627 Eh       0.89 kcal/mol
Thermal translational correction ...      0.00141627 Eh       0.89 kcal/mol
-----------------------------------------------------------------------
Total thermal energy                   -687.37843448 Eh

Summary of corrections to the electronic energy:
(perhaps to be used in another calculation)
Total thermal correction                  0.01255325 Eh       7.88 kcal/mol
Non-thermal (ZPE) correction              0.23553660 Eh     147.80 kcal/mol
-----------------------------------------------------------------------
Total correction                          0.24808985 Eh     155.68 kcal/mol

--------
ENTHALPY
--------

The enthalpy is H = U + kB*T
                kB is Boltzmann's constant
Total free energy                 ...   -687.37843448 Eh
Thermal Enthalpy correction       ...      0.00094421 Eh       0.59 kcal/mol
-----------------------------------------------------------------------
Total Enthalpy                    ...   -687.37749027 Eh

Note: Only C1 symmetry has been detected, increase convergence thresholds
      if your molecule has a higher symmetry. Symmetry factor of 1.0 is
      used for the rotational entropy correction.

Note: Rotational entropy computed according to Herzberg
Infrared and Raman Spectra, Chapter V,1, Van Nostrand Reinhold, 1945
Point Group:  C1, Symmetry Number:   1
Rotational constants in cm-1:     0.054919     0.006923     0.006264

Vibrational entropy computed according to the QRRHO of S. Grimme
Chem.Eur.J. 2012 18 9955

-------
ENTROPY
-------

The entropy contributions are T*S = T*(S(el)+S(vib)+S(rot)+S(trans))

                             ****ORCA TERMINATED NORMALLY****
TOTAL RUN TIME: 0 days 2 hours 35 minutes 35 seconds 371 msec
