                         Program Version 5.0.4 -  RELEASE  -
|  1> # ORCA 5.0.4 - /users/bwb16179/postgrad/2024_03/DFT_Crest_Conformers/Opt/deprot/7_deprot_aq_1.inp # write input file
|  2> # Basic Mode
|  3> #
|  4> ! Opt Freq wB97X Def2-SVP D4 SlowConv TightSCF Defgrid2 Def2/J RIJCOSX CPCM(Water)
|  5>
|  6>
|  7>
|  8> %maxcore 4500
|  9>
| 10> %geom
| 11> Maxiter 150
| 12> END
| 13>
| 14> * xyzfile 0 1 7_deprot_aq_1.xyz
| 15>
| 16>                          ****END OF INPUT****
 Total Charge           Charge          ....    0
 Multiplicity           Mult            ....    1
 Number of Electrons    NEL             ....  116
Dispersion correction           -0.005858865
FINAL SINGLE POINT ENERGY      -687.620812991054
Dispersion correction            ... Starting D4
Dispersion correction           -0.005812152
FINAL SINGLE POINT ENERGY      -687.625653443129
Dispersion correction            ... Starting D4
Dispersion correction           -0.005807989
FINAL SINGLE POINT ENERGY      -687.625856734116
Dispersion correction            ... Starting D4
FINAL SINGLE POINT ENERGY      -687.625944281942
FINAL SINGLE POINT ENERGY      -687.626024108367
FINAL SINGLE POINT ENERGY      -687.626127219011
Dispersion correction           -0.005806503
FINAL SINGLE POINT ENERGY      -687.626180935309
Dispersion correction            ... Starting D4
Dispersion correction           -0.005806661
FINAL SINGLE POINT ENERGY      -687.626216358721
Dispersion correction            ... Starting D4
                    ***********************HURRAY********************

CARTESIAN COORDINATES (ANGSTROEM)
---------------------------------
  N     -1.062834   -0.490386   -0.019444
  C     -0.000015    0.360195   -0.000024
  N      1.062842   -0.490335    0.019616
  C      0.674961   -1.828216    0.010738
  C     -0.674896   -1.828248   -0.010161
  C     -2.419565   -0.050608   -0.041456
  C      2.419555   -0.050490    0.041436
  C     -3.419569   -0.829567    0.544867
  C     -2.745797    1.163621   -0.651154
  C      3.419564   -0.829580   -0.544704
  C      2.745767    1.163935    0.650754
  H      1.380141   -2.656151    0.034956
  H     -1.380046   -2.656216   -0.034121
  C     -4.069296    1.596948   -0.664867
  C     -5.074439    0.820685   -0.085784
  C     -4.743901   -0.392855    0.515489
  C      4.743877   -0.392796   -0.515533
  C      5.074393    0.820940    0.085353
  C      4.069246    1.597327    0.664264
  H     -3.167777   -1.771092    1.039621
  H     -1.953632    1.758996   -1.109157
  H     -4.317036    2.548857   -1.143095
  H     -6.113242    1.161370   -0.103923
  H     -5.521201   -1.007333    0.978146
  H      3.167800   -1.771272   -1.039153
  H      4.316967    2.549391    1.142194
  H      1.953608    1.759415    1.108631
  H      5.521177   -1.007386   -0.978043
  H      6.113180    1.161682    0.103329

 Multiplicity           Mult            ....    1
 Number of Electrons    NEL             ....  116
 Basis Dimension        Dim             ....  298

ORBITAL ENERGIES
----------------

  NO   OCC          E(Eh)            E(eV)
   0   2.0000     -14.470597      -393.7650
   1   2.0000     -14.470595      -393.7649
   2   2.0000     -10.326028      -280.9855
   3   2.0000     -10.325974      -280.9840
   4   2.0000     -10.308425      -280.5065
   5   2.0000     -10.307816      -280.4899
   6   2.0000     -10.294462      -280.1265
   7   2.0000     -10.284123      -279.8452
   8   2.0000     -10.284119      -279.8451
   9   2.0000     -10.283066      -279.8164
  10   2.0000     -10.283064      -279.8164
  11   2.0000     -10.282504      -279.8011
  12   2.0000     -10.282501      -279.8011
  13   2.0000     -10.281046      -279.7615
  14   2.0000     -10.281044      -279.7614
  15   2.0000     -10.278895      -279.7029
  16   2.0000     -10.278894      -279.7029
  17   2.0000      -1.167636       -31.7730
  18   2.0000      -1.067134       -29.0382
  19   2.0000      -0.996300       -27.1107
  20   2.0000      -0.977859       -26.6089
  21   2.0000      -0.911581       -24.8054
  22   2.0000      -0.883624       -24.0446
  23   2.0000      -0.878235       -23.8980
  24   2.0000      -0.865777       -23.5590
  25   2.0000      -0.860269       -23.4091
  26   2.0000      -0.782104       -21.2821
  27   2.0000      -0.761015       -20.7083
  28   2.0000      -0.731054       -19.8930
  29   2.0000      -0.724689       -19.7198
  30   2.0000      -0.695556       -18.9270
  31   2.0000      -0.685735       -18.6598
  32   2.0000      -0.663147       -18.0452
  33   2.0000      -0.640305       -17.4236
  34   2.0000      -0.608226       -16.5507
  35   2.0000      -0.594787       -16.1850
  36   2.0000      -0.585819       -15.9409
  37   2.0000      -0.576508       -15.6876
  38   2.0000      -0.566092       -15.4041
  39   2.0000      -0.562966       -15.3191
  40   2.0000      -0.546550       -14.8724
  41   2.0000      -0.538371       -14.6498
  42   2.0000      -0.534698       -14.5499
  43   2.0000      -0.532139       -14.4802
  44   2.0000      -0.531959       -14.4753
  45   2.0000      -0.508784       -13.8447
  46   2.0000      -0.490134       -13.3372
  47   2.0000      -0.469548       -12.7770
  48   2.0000      -0.464552       -12.6411
  49   2.0000      -0.456674       -12.4267
  50   2.0000      -0.450448       -12.2573
  51   2.0000      -0.435647       -11.8545
  52   2.0000      -0.369893       -10.0653
  53   2.0000      -0.359053        -9.7703
  54   2.0000      -0.357750        -9.7349
  55   2.0000      -0.336461        -9.1556
  56   2.0000      -0.327263        -8.9053
  57   2.0000      -0.326482        -8.8840
  58   0.0000       0.048607         1.3227
  59   0.0000       0.060154         1.6369
  60   0.0000       0.064374         1.7517
  61   0.0000       0.067225         1.8293
  62   0.0000       0.122762         3.3405

MULLIKEN ATOMIC CHARGES
-----------------------
   0 N :   -0.188339
   1 C :   -0.138391
   2 N :   -0.188339
   3 C :    0.034986
   4 C :    0.034986
   5 C :    0.158592
   6 C :    0.158596
   7 C :   -0.072241
   8 C :   -0.045978
   9 C :   -0.072246
  10 C :   -0.045980
  11 H :    0.081374
  12 H :    0.081374
  13 C :   -0.027979
  14 C :   -0.023127
  15 C :   -0.031210
  16 C :   -0.031211
  17 C :   -0.023127
  18 C :   -0.027977
  19 H :    0.036034
  20 H :    0.020424
  21 H :    0.043020
  22 H :    0.040310
  23 H :    0.043330
  24 H :    0.036033
  25 H :    0.043020
  26 H :    0.020425
  27 H :    0.043330
  28 H :    0.040310
Sum of atomic charges:    0.0000000

LOEWDIN ATOMIC CHARGES
----------------------
   0 N :    0.039770
   1 C :   -0.260505
   2 N :    0.039769
   3 C :   -0.016213
   4 C :   -0.016213
   5 C :    0.022289
   6 C :    0.022289
   7 C :   -0.045194
   8 C :   -0.036121
   9 C :   -0.045195
  10 C :   -0.036122
  11 H :    0.048097
  12 H :    0.048097
  13 C :   -0.025443
  14 C :   -0.040070
  15 C :   -0.024379
  16 C :   -0.024379
  17 C :   -0.040070
  18 C :   -0.025443
  19 H :    0.043987
  20 H :    0.036922
  21 H :    0.042693
  22 H :    0.040833
  23 H :    0.043083
  24 H :    0.043987
  25 H :    0.042693
  26 H :    0.036923
  27 H :    0.043083
  28 H :    0.040833

  Mayer bond orders larger than 0.100000
B(  0-N ,  1-C ) :   1.2201 B(  0-N ,  4-C ) :   1.0924 B(  0-N ,  5-C ) :   0.9420
B(  1-C ,  2-N ) :   1.2201 B(  2-N ,  3-C ) :   1.0924 B(  2-N ,  6-C ) :   0.9420
B(  3-C ,  4-C ) :   1.6651 B(  3-C , 11-H ) :   0.9818 B(  4-C , 12-H ) :   0.9818
B(  5-C ,  7-C ) :   1.3892 B(  5-C ,  8-C ) :   1.3984 B(  6-C ,  9-C ) :   1.3892
B(  6-C , 10-C ) :   1.3984 B(  7-C , 15-C ) :   1.3894 B(  7-C , 19-H ) :   0.9961
B(  8-C , 13-C ) :   1.3864 B(  8-C , 20-H ) :   0.9949 B(  9-C , 16-C ) :   1.3894
B(  9-C , 24-H ) :   0.9961 B( 10-C , 18-C ) :   1.3864 B( 10-C , 26-H ) :   0.9949
B( 13-C , 14-C ) :   1.3825 B( 13-C , 21-H ) :   0.9900 B( 14-C , 15-C ) :   1.3962
B( 14-C , 22-H ) :   0.9955 B( 15-C , 23-H ) :   0.9896 B( 16-C , 17-C ) :   1.3962
B( 16-C , 27-H ) :   0.9896 B( 17-C , 18-C ) :   1.3825 B( 17-C , 28-H ) :   0.9955
B( 18-C , 25-H ) :   0.9900

Dispersion correction           -0.005806533
FINAL SINGLE POINT ENERGY      -687.626223613763

DIPOLE MOMENT
-------------
                                X             Y             Z
Electronic contribution:      0.00001      -1.39933       0.00037
Nuclear contribution   :      0.00001      -0.05223      -0.00019
                        -----------------------------------------
Total Dipole Moment    :      0.00002      -1.45156       0.00019
                        -----------------------------------------
Magnitude (a.u.)       :      1.45156
Magnitude (Debye)      :      3.68958

Dispersion correction in the Hessian             ... Starting D4

VIBRATIONAL FREQUENCIES
-----------------------

Scaling factor for frequencies =  1.000000000  (already applied!)

   0:         0.00 cm**-1
   1:         0.00 cm**-1
   2:         0.00 cm**-1
   3:         0.00 cm**-1
   4:         0.00 cm**-1
   5:         0.00 cm**-1
   6:        12.98 cm**-1
   7:        35.83 cm**-1
   8:        75.29 cm**-1
   9:        86.80 cm**-1
  10:       135.88 cm**-1
  11:       177.79 cm**-1
  12:       260.12 cm**-1
  13:       295.33 cm**-1
  14:       311.61 cm**-1
  15:       420.00 cm**-1
  16:       425.40 cm**-1
  17:       430.82 cm**-1
  18:       431.48 cm**-1
  19:       490.94 cm**-1
  20:       538.76 cm**-1
  21:       570.77 cm**-1
  22:       628.67 cm**-1
  23:       629.79 cm**-1
  24:       661.47 cm**-1
  25:       662.22 cm**-1
  26:       692.37 cm**-1
  27:       724.19 cm**-1
  28:       724.63 cm**-1
  29:       726.86 cm**-1
  30:       747.93 cm**-1
  31:       802.71 cm**-1
  32:       804.07 cm**-1
  33:       870.90 cm**-1
  34:       870.97 cm**-1
  35:       889.75 cm**-1
  36:       962.69 cm**-1
  37:       962.87 cm**-1
  38:       967.77 cm**-1
  39:       976.83 cm**-1
  40:      1021.63 cm**-1
  41:      1022.24 cm**-1
  42:      1025.13 cm**-1
  43:      1025.20 cm**-1
  44:      1050.70 cm**-1
  45:      1050.75 cm**-1
  46:      1059.00 cm**-1
  47:      1061.04 cm**-1
  48:      1090.16 cm**-1
  49:      1099.11 cm**-1
  50:      1111.19 cm**-1
  51:      1115.82 cm**-1
  52:      1135.41 cm**-1
  53:      1156.41 cm**-1
  54:      1156.56 cm**-1
  55:      1181.37 cm**-1
  56:      1181.85 cm**-1
  57:      1293.99 cm**-1
  58:      1305.50 cm**-1
  59:      1307.40 cm**-1
  60:      1352.28 cm**-1
  61:      1352.62 cm**-1
  62:      1358.17 cm**-1
  63:      1390.97 cm**-1
  64:      1433.24 cm**-1
  65:      1465.39 cm**-1
  66:      1506.22 cm**-1
  67:      1510.77 cm**-1
  68:      1556.48 cm**-1
  69:      1565.18 cm**-1
  70:      1663.32 cm**-1
  71:      1694.00 cm**-1
  72:      1699.62 cm**-1
  73:      1707.75 cm**-1
  74:      1711.52 cm**-1
  75:      3214.18 cm**-1
  76:      3214.22 cm**-1
  77:      3221.71 cm**-1
  78:      3221.74 cm**-1
  79:      3230.35 cm**-1
  80:      3230.40 cm**-1
  81:      3237.16 cm**-1
  82:      3237.21 cm**-1
  83:      3248.27 cm**-1
  84:      3248.38 cm**-1
  85:      3298.17 cm**-1
  86:      3318.35 cm**-1

IR SPECTRUM
-----------

 Mode   freq       eps      Int      T**2         TX        TY        TZ
       cm**-1   L/(mol*cm) km/mol    a.u.
----------------------------------------------------------------------------
  6:     12.98   0.000002    0.01  0.000049  (-0.000021  0.007014 -0.000021)
  7:     35.83   0.000111    0.56  0.000968  ( 0.030543  0.000005  0.005952)
  8:     75.29   0.000083    0.42  0.000344  (-0.000018  0.018551 -0.000041)
  9:     86.80   0.004257   21.51  0.015304  (-0.047952 -0.000023 -0.114038)
 10:    135.88   0.000004    0.02  0.000008  ( 0.000001 -0.002858  0.000003)
 11:    177.79   0.000608    3.07  0.001067  (-0.028729  0.000003  0.015544)
 12:    260.12   0.000037    0.19  0.000045  ( 0.000004  0.006701 -0.000004)
 13:    295.33   0.001689    8.54  0.001785  (-0.035886 -0.000003 -0.022290)
 14:    311.61   0.000081    0.41  0.000082  (-0.000002 -0.009033 -0.000001)
 15:    420.00   0.000002    0.01  0.000001  (-0.001193 -0.000002 -0.000261)
 16:    425.40   0.000008    0.04  0.000006  ( 0.000002 -0.002482 -0.000001)
 17:    430.82   0.000136    0.69  0.000098  (-0.009908  0.000004 -0.000295)
 18:    431.48   0.000005    0.03  0.000004  ( 0.000025  0.001949  0.000000)
 19:    490.94   0.001710    8.64  0.001087  (-0.029141 -0.000003 -0.015416)
 20:    538.76   0.001274    6.44  0.000738  ( 0.000005 -0.027163 -0.000003)
 21:    570.77   0.004299   21.73  0.002351  (-0.029456  0.000002  0.038509)
 22:    628.67   0.000273    1.38  0.000136  (-0.011469  0.000000  0.001993)
 23:    629.79   0.000209    1.06  0.000104  (-0.000001  0.010178 -0.000001)
 24:    661.47   0.000948    4.79  0.000447  ( 0.017876  0.000011  0.011304)
 25:    662.22   0.000738    3.73  0.000348  ( 0.000008 -0.018651  0.000005)
 26:    692.37   0.000542    2.74  0.000244  (-0.000003 -0.015636  0.000007)
 27:    724.19   0.004941   24.97  0.002129  (-0.000079  0.046141 -0.000363)
 28:    724.63   0.017410   87.98  0.007497  (-0.017613 -0.000205 -0.084778)
 29:    726.86   0.013358   67.51  0.005735  (-0.066928  0.000003  0.035435)
 30:    747.93   0.017604   88.97  0.007345  (-0.007208 -0.000014 -0.085401)
 31:    802.71   0.003377   17.06  0.001313  (-0.000012 -0.036232 -0.000045)
 32:    804.07   0.015279   77.21  0.005930  (-0.024857  0.000013 -0.072883)
 33:    870.90   0.000064    0.32  0.000023  (-0.000002 -0.004798  0.000137)
 34:    870.97   0.000011    0.06  0.000004  ( 0.000021 -0.000339 -0.001958)
 35:    889.75   0.000044    0.22  0.000015  ( 0.000003  0.003935 -0.000003)
 36:    962.69   0.000399    2.01  0.000129  (-0.000177  0.011365 -0.000184)
 37:    962.87   0.003767   19.04  0.001221  (-0.024579 -0.000085 -0.024835)
 38:    967.77   0.005134   25.95  0.001656  (-0.039879 -0.000001  0.008077)
 39:    976.83   0.000482    2.44  0.000154  ( 0.000004 -0.012414  0.000001)
 40:   1021.63   0.000076    0.38  0.000023  (-0.004641 -0.000007 -0.001273)
 41:   1022.24   0.000058    0.30  0.000018  (-0.000006  0.004225 -0.000004)
 42:   1025.13   0.000032    0.16  0.000010  ( 0.000296 -0.000291  0.003083)
 43:   1025.20   0.000065    0.33  0.000020  ( 0.000020  0.004444  0.000201)
 44:   1050.70   0.000001    0.01  0.000000  (-0.000058  0.000537 -0.000058)
 45:   1050.75   0.000320    1.62  0.000095  ( 0.007358  0.000008  0.006394)
 46:   1059.00   0.000878    4.44  0.000259  (-0.000038 -0.016084  0.000003)
 47:   1061.04   0.003500   17.69  0.001029  (-0.031933  0.000020 -0.003123)
 48:   1090.16   0.000941    4.75  0.000269  ( 0.000004 -0.016410  0.000009)
 49:   1099.11   0.004546   22.97  0.001291  (-0.030764  0.000018  0.018552)
 50:   1111.19   0.009069   45.83  0.002547  ( 0.000002 -0.050468  0.000019)
 51:   1115.82   0.002080   10.51  0.000582  (-0.020764 -0.000032 -0.012271)
 52:   1135.41   0.000687    3.47  0.000189  (-0.000006 -0.013740  0.000006)
 53:   1156.41   0.000024    0.12  0.000007  ( 0.000067 -0.002551 -0.000010)
 54:   1156.56   0.000051    0.26  0.000014  ( 0.003647  0.000053 -0.000694)
 55:   1181.37   0.000242    1.22  0.000064  (-0.000058 -0.007987 -0.000043)
 56:   1181.85   0.000079    0.40  0.000021  ( 0.003576 -0.000133  0.002834)
 57:   1293.99   0.008350   42.20  0.002014  ( 0.044849  0.000003  0.001480)
 58:   1305.50   0.001062    5.37  0.000254  (-0.000137  0.015933 -0.000005)
 59:   1307.40   0.009617   48.60  0.002295  ( 0.047905  0.000044  0.000702)
 60:   1352.28   0.000524    2.65  0.000121  ( 0.010708 -0.000014 -0.002507)
 61:   1352.62   0.000040    0.20  0.000009  (-0.000075 -0.003026  0.000014)
 62:   1358.17   0.012654   63.95  0.002908  ( 0.053886 -0.000005 -0.001960)
 63:   1390.97   0.003270   16.52  0.000734  ( 0.000001  0.027084 -0.000005)
 64:   1433.24   0.000081    0.41  0.000018  ( 0.000000 -0.004203  0.000001)
 65:   1465.39   0.034262  173.14  0.007296  ( 0.085417  0.000003  0.000317)
 66:   1506.22   0.001570    7.94  0.000325  (-0.013833 -0.000005 -0.011576)
 67:   1510.77   0.001236    6.25  0.000255  (-0.000010  0.015978 -0.000006)
 68:   1556.48   0.089042  449.98  0.017852  (-0.133603 -0.000011 -0.001603)
 69:   1565.18   0.003618   18.28  0.000721  ( 0.000033 -0.026859  0.000006)
 70:   1663.32   0.002185   11.04  0.000410  ( 0.000000 -0.020245  0.000003)
 71:   1694.00   0.001871    9.45  0.000345  (-0.013791  0.000003  0.012428)
 72:   1699.62   0.000765    3.87  0.000141  ( 0.000003 -0.011855  0.000004)
 73:   1707.75   0.030815  155.72  0.005631  ( 0.075003  0.000008  0.002340)
 74:   1711.52   0.002461   12.44  0.000449  ( 0.000019 -0.021183  0.000004)
 75:   3214.18   0.000281    1.42  0.000027  ( 0.005191 -0.000024  0.000539)
 76:   3214.22   0.000055    0.28  0.000005  (-0.000053 -0.002310 -0.000005)
 77:   3221.71   0.001168    5.90  0.000113  (-0.007636 -0.000190  0.007401)
 78:   3221.74   0.001443    7.29  0.000140  ( 0.000124 -0.011823 -0.000120)
 79:   3230.35   0.002752   13.91  0.000266  (-0.015722  0.000447 -0.004297)
 80:   3230.40   0.001826    9.23  0.000176  ( 0.000532  0.013270  0.000141)
 81:   3237.16   0.002005   10.13  0.000193  (-0.013619 -0.000024  0.002802)
 82:   3237.21   0.000026    0.13  0.000002  ( 0.000224 -0.001552 -0.000047)
 83:   3248.27   0.000039    0.20  0.000004  (-0.000955 -0.000003 -0.001676)
 84:   3248.38   0.000001    0.00  0.000000  (-0.000009  0.000247 -0.000014)
 85:   3298.17   0.004081   20.62  0.000386  ( 0.019644  0.000000  0.000498)
 86:   3318.35   0.001272    6.43  0.000120  (-0.000001  0.010937 -0.000002)

--------------------------
THERMOCHEMISTRY AT 298.15K
--------------------------

Temperature         ... 298.15 K
Pressure            ... 1.00 atm
Total Mass          ... 220.28 AMU

Throughout the following assumptions are being made:
  (1) The electronic state is orbitally nondegenerate
  (2) There are no thermally accessible electronically excited states
  (3) Hindered rotations indicated by low frequency modes are not
      treated as such but are treated as vibrations and this may
      cause some error
  (4) All equations used are the standard statistical mechanics
      equations for an ideal gas
  (5) All vibrations are strictly harmonic

freq.      12.98  E(vib)   ...       0.57
freq.      35.83  E(vib)   ...       0.54
freq.      75.29  E(vib)   ...       0.49
freq.      86.80  E(vib)   ...       0.48
freq.     135.88  E(vib)   ...       0.42
freq.     177.79  E(vib)   ...       0.37
freq.     260.12  E(vib)   ...       0.30
freq.     295.33  E(vib)   ...       0.27
freq.     311.61  E(vib)   ...       0.25
freq.     420.00  E(vib)   ...       0.18
freq.     425.40  E(vib)   ...       0.18
freq.     430.82  E(vib)   ...       0.18
freq.     431.48  E(vib)   ...       0.18
freq.     490.94  E(vib)   ...       0.14
freq.     538.76  E(vib)   ...       0.12
freq.     570.77  E(vib)   ...       0.11
freq.     628.67  E(vib)   ...       0.09
freq.     629.79  E(vib)   ...       0.09
freq.     661.47  E(vib)   ...       0.08
freq.     662.22  E(vib)   ...       0.08
freq.     692.37  E(vib)   ...       0.07
freq.     724.19  E(vib)   ...       0.06
freq.     724.63  E(vib)   ...       0.06
freq.     726.86  E(vib)   ...       0.06
freq.     747.93  E(vib)   ...       0.06
freq.     802.71  E(vib)   ...       0.05
freq.     804.07  E(vib)   ...       0.05
freq.     870.90  E(vib)   ...       0.04
freq.     870.97  E(vib)   ...       0.04
freq.     889.75  E(vib)   ...       0.04
freq.     962.69  E(vib)   ...       0.03
freq.     962.87  E(vib)   ...       0.03
freq.     967.77  E(vib)   ...       0.03
freq.     976.83  E(vib)   ...       0.03
freq.    1021.63  E(vib)   ...       0.02
freq.    1022.24  E(vib)   ...       0.02
freq.    1025.13  E(vib)   ...       0.02
freq.    1025.20  E(vib)   ...       0.02
freq.    1050.70  E(vib)   ...       0.02
freq.    1050.75  E(vib)   ...       0.02
freq.    1059.00  E(vib)   ...       0.02
freq.    1061.04  E(vib)   ...       0.02
freq.    1090.16  E(vib)   ...       0.02
freq.    1099.11  E(vib)   ...       0.02
freq.    1111.19  E(vib)   ...       0.01
freq.    1115.82  E(vib)   ...       0.01
freq.    1135.41  E(vib)   ...       0.01
freq.    1156.41  E(vib)   ...       0.01
freq.    1156.56  E(vib)   ...       0.01
freq.    1181.37  E(vib)   ...       0.01
freq.    1181.85  E(vib)   ...       0.01
freq.    1293.99  E(vib)   ...       0.01
freq.    1305.50  E(vib)   ...       0.01
freq.    1307.40  E(vib)   ...       0.01
freq.    1352.28  E(vib)   ...       0.01
freq.    1352.62  E(vib)   ...       0.01
freq.    1358.17  E(vib)   ...       0.01
freq.    1390.97  E(vib)   ...       0.00
freq.    1433.24  E(vib)   ...       0.00
freq.    1465.39  E(vib)   ...       0.00
freq.    1506.22  E(vib)   ...       0.00
freq.    1510.77  E(vib)   ...       0.00
freq.    1556.48  E(vib)   ...       0.00
freq.    1565.18  E(vib)   ...       0.00
freq.    1663.32  E(vib)   ...       0.00
freq.    1694.00  E(vib)   ...       0.00
freq.    1699.62  E(vib)   ...       0.00
freq.    1707.75  E(vib)   ...       0.00
freq.    1711.52  E(vib)   ...       0.00
freq.    3214.18  E(vib)   ...       0.00
freq.    3214.22  E(vib)   ...       0.00
freq.    3221.71  E(vib)   ...       0.00
freq.    3221.74  E(vib)   ...       0.00
freq.    3230.35  E(vib)   ...       0.00
freq.    3230.40  E(vib)   ...       0.00
freq.    3237.16  E(vib)   ...       0.00
freq.    3237.21  E(vib)   ...       0.00
freq.    3248.27  E(vib)   ...       0.00
freq.    3248.38  E(vib)   ...       0.00
freq.    3298.17  E(vib)   ...       0.00
freq.    3318.35  E(vib)   ...       0.00

------------
INNER ENERGY
------------

The inner energy is: U= E(el) + E(ZPE) + E(vib) + E(rot) + E(trans)
    E(el)   - is the total energy from the electronic structure calculation
              = E(kin-el) + E(nuc-el) + E(el-el) + E(nuc-nuc)
    E(ZPE)  - the the zero temperature vibrational energy from the frequency calculation
    E(vib)  - the the finite temperature correction to E(ZPE) due to population
              of excited vibrational states
    E(rot)  - is the rotational thermal energy
    E(trans)- is the translational thermal energy

Summary of contributions to the inner energy U:
Electronic energy                ...   -687.62622361 Eh
Zero point energy                ...      0.23543628 Eh     147.74 kcal/mol
Thermal vibrational correction   ...      0.00975571 Eh       6.12 kcal/mol
Thermal rotational correction    ...      0.00141627 Eh       0.89 kcal/mol
Thermal translational correction ...      0.00141627 Eh       0.89 kcal/mol
-----------------------------------------------------------------------
Total thermal energy                   -687.37819908 Eh

Summary of corrections to the electronic energy:
(perhaps to be used in another calculation)
Total thermal correction                  0.01258826 Eh       7.90 kcal/mol
Non-thermal (ZPE) correction              0.23543628 Eh     147.74 kcal/mol
-----------------------------------------------------------------------
Total correction                          0.24802453 Eh     155.64 kcal/mol

--------
ENTHALPY
--------

The enthalpy is H = U + kB*T
                kB is Boltzmann's constant
Total free energy                 ...   -687.37819908 Eh
Thermal Enthalpy correction       ...      0.00094421 Eh       0.59 kcal/mol
-----------------------------------------------------------------------
Total Enthalpy                    ...   -687.37725487 Eh

Note: Only C1 symmetry has been detected, increase convergence thresholds
      if your molecule has a higher symmetry. Symmetry factor of 1.0 is
      used for the rotational entropy correction.

Note: Rotational entropy computed according to Herzberg
Infrared and Raman Spectra, Chapter V,1, Van Nostrand Reinhold, 1945
Point Group:  C1, Symmetry Number:   1
Rotational constants in cm-1:     0.054879     0.006875     0.006309

Vibrational entropy computed according to the QRRHO of S. Grimme
Chem.Eur.J. 2012 18 9955

-------
ENTROPY
-------

The entropy contributions are T*S = T*(S(el)+S(vib)+S(rot)+S(trans))

                             ****ORCA TERMINATED NORMALLY****
TOTAL RUN TIME: 0 days 2 hours 10 minutes 24 seconds 170 msec
