                         Program Version 5.0.4 -  RELEASE  -
|  1> # ORCA 5.0.4 - /users/bwb16179/postgrad/2024_03/DFT_Crest_Conformers/Opt/prot/7_prot_aq_1.inp # write input file
|  2> # Basic Mode
|  3> #
|  4> ! Opt Freq wB97X Def2-SVP D4 SlowConv TightSCF Defgrid2 Def2/J RIJCOSX CPCM(Water)
|  5>
|  6>
|  7>
|  8> %maxcore 4500
|  9>
| 10> %geom
| 11> Maxiter 150
| 12> END
| 13>
| 14> * xyzfile 1 1 7_prot_aq_1.xyz
| 15>
| 16>                          ****END OF INPUT****
 Total Charge           Charge          ....    1
 Multiplicity           Mult            ....    1
 Number of Electrons    NEL             ....  116
Dispersion correction           -0.005768099
FINAL SINGLE POINT ENERGY      -688.114781895191
Dispersion correction            ... Starting D4
Dispersion correction           -0.005745739
FINAL SINGLE POINT ENERGY      -688.118869102882
Dispersion correction            ... Starting D4
Dispersion correction           -0.005742196
FINAL SINGLE POINT ENERGY      -688.119054530567
Dispersion correction            ... Starting D4
FINAL SINGLE POINT ENERGY      -688.119136056895
Dispersion correction           -0.005741940
FINAL SINGLE POINT ENERGY      -688.119152398373
Dispersion correction            ... Starting D4
Dispersion correction           -0.005742581
FINAL SINGLE POINT ENERGY      -688.119154165663
Dispersion correction            ... Starting D4
                    ***********************HURRAY********************

CARTESIAN COORDINATES (ANGSTROEM)
---------------------------------
  N     -1.081924    0.464505    0.236653
  C     -0.000010   -0.235364   -0.104392
  N      1.081891    0.464583    0.236530
  H     -0.000012   -1.202749   -0.607514
  C      0.678786    1.657277    0.808656
  C     -0.678844    1.657247    0.808692
  C     -2.441469    0.050025    0.032504
  C      2.441448    0.050180    0.032317
  C     -3.353779    0.965407   -0.488393
  C     -2.818160   -1.249259    0.364969
  C      3.353706    0.965642   -0.488529
  C      2.818208   -1.249113    0.364671
  H      1.394005    2.386227    1.184140
  H     -1.394071    2.386159    1.184233
  C     -4.674858    0.565320   -0.676306
  H     -3.032868    1.976048   -0.754067
  C     -4.140108   -1.639566    0.158763
  C      4.674800    0.565630   -0.676502
  C      5.067841   -0.734455   -0.357418
  C      4.140169   -1.639344    0.158406
  C     -5.067831   -0.734758   -0.357111
  H     -4.445645   -2.656857    0.416249
  H      2.091082   -1.945276    0.791266
  H      3.032747    1.976289   -0.754122
  H      5.398954    1.276360   -1.082746
  H      6.105057   -1.043500   -0.511346
  H      4.445757   -2.656640    0.415812
  H     -6.105037   -1.043866   -0.510992
  H     -5.399053    1.275988   -1.082586
  H     -2.090987   -1.945355    0.791594

 Multiplicity           Mult            ....    1
 Number of Electrons    NEL             ....  116
 Basis Dimension        Dim             ....  303

ORBITAL ENERGIES
----------------

  NO   OCC          E(Eh)            E(eV)
   0   2.0000     -14.530158      -395.3857
   1   2.0000     -14.530149      -395.3855
   2   2.0000     -10.399813      -282.9933
   3   2.0000     -10.347116      -281.5593
   4   2.0000     -10.347068      -281.5580
   5   2.0000     -10.346237      -281.5354
   6   2.0000     -10.345646      -281.5193
   7   2.0000     -10.300658      -280.2952
   8   2.0000     -10.300652      -280.2950
   9   2.0000     -10.300207      -280.2829
  10   2.0000     -10.300204      -280.2828
  11   2.0000     -10.293670      -280.1050
  12   2.0000     -10.293669      -280.1050
  13   2.0000     -10.293579      -280.1025
  14   2.0000     -10.293578      -280.1025
  15   2.0000     -10.291744      -280.0526
  16   2.0000     -10.291743      -280.0526
  17   2.0000      -1.232728       -33.5442
  18   2.0000      -1.118056       -30.4239
  19   2.0000      -1.016624       -27.6637
  20   2.0000      -0.998051       -27.1583
  21   2.0000      -0.946138       -25.7457
  22   2.0000      -0.918284       -24.9878
  23   2.0000      -0.893486       -24.3130
  24   2.0000      -0.890342       -24.2274
  25   2.0000      -0.883129       -24.0312
  26   2.0000      -0.810902       -22.0658
  27   2.0000      -0.798557       -21.7298
  28   2.0000      -0.752723       -20.4826
  29   2.0000      -0.747181       -20.3318
  30   2.0000      -0.733296       -19.9540
  31   2.0000      -0.731714       -19.9109
  32   2.0000      -0.699345       -19.0302
  33   2.0000      -0.668524       -18.1915
  34   2.0000      -0.640048       -17.4166
  35   2.0000      -0.627981       -17.0882
  36   2.0000      -0.612237       -16.6598
  37   2.0000      -0.607266       -16.5245
  38   2.0000      -0.597357       -16.2549
  39   2.0000      -0.586006       -15.9460
  40   2.0000      -0.583761       -15.8850
  41   2.0000      -0.573101       -15.5949
  42   2.0000      -0.559284       -15.2189
  43   2.0000      -0.556248       -15.1363
  44   2.0000      -0.549157       -14.9433
  45   2.0000      -0.546310       -14.8658
  46   2.0000      -0.523573       -14.2471
  47   2.0000      -0.507983       -13.8229
  48   2.0000      -0.481129       -13.0922
  49   2.0000      -0.478261       -13.0141
  50   2.0000      -0.477022       -12.9804
  51   2.0000      -0.466929       -12.7058
  52   2.0000      -0.454618       -12.3708
  53   2.0000      -0.393641       -10.7115
  54   2.0000      -0.370059       -10.0698
  55   2.0000      -0.369705       -10.0602
  56   2.0000      -0.368181       -10.0187
  57   2.0000      -0.356463        -9.6998
  58   0.0000       0.017152         0.4667
  59   0.0000       0.048463         1.3187
  60   0.0000       0.051931         1.4131
  61   0.0000       0.052413         1.4262
  62   0.0000       0.077628         2.1124

MULLIKEN ATOMIC CHARGES
-----------------------
   0 N :   -0.171385
   1 C :    0.249497
   2 N :   -0.171383
   3 H :    0.153389
   4 C :    0.081648
   5 C :    0.081650
   6 C :    0.118530
   7 C :    0.118547
   8 C :   -0.024408
   9 C :   -0.027875
  10 C :   -0.024418
  11 C :   -0.027882
  12 H :    0.116417
  13 H :    0.116416
  14 C :   -0.031877
  15 H :    0.053828
  16 C :   -0.030545
  17 C :   -0.031879
  18 C :   -0.004044
  19 C :   -0.030543
  20 C :   -0.004043
  21 H :    0.055284
  22 H :    0.054599
  23 H :    0.053829
  24 H :    0.055296
  25 H :    0.053087
  26 H :    0.055284
  27 H :    0.053087
  28 H :    0.055296
  29 H :    0.054599
Sum of atomic charges:    1.0000000

LOEWDIN ATOMIC CHARGES
----------------------
   0 N :    0.110875
   1 C :    0.149155
   2 N :    0.110875
   3 H :    0.077330
   4 C :    0.034141
   5 C :    0.034140
   6 C :    0.010955
   7 C :    0.010957
   8 C :   -0.020806
   9 C :   -0.022116
  10 C :   -0.020808
  11 C :   -0.022117
  12 H :    0.067625
  13 H :    0.067626
  14 C :   -0.014766
  15 H :    0.053095
  16 C :   -0.014766
  17 C :   -0.014766
  18 C :   -0.015839
  19 C :   -0.014766
  20 C :   -0.015839
  21 H :    0.049000
  22 H :    0.053077
  23 H :    0.053095
  24 H :    0.048950
  25 H :    0.047332
  26 H :    0.049000
  27 H :    0.047332
  28 H :    0.048950
  29 H :    0.053077

  Mayer bond orders larger than 0.100000
B(  0-N ,  1-C ) :   1.3400 B(  0-N ,  5-C ) :   1.1462 B(  0-N ,  6-C ) :   0.8682
B(  1-C ,  2-N ) :   1.3400 B(  1-C ,  3-H ) :   0.9619 B(  2-N ,  4-C ) :   1.1462
B(  2-N ,  7-C ) :   0.8682 B(  4-C ,  5-C ) :   1.6241 B(  4-C , 12-H ) :   0.9801
B(  5-C , 13-H ) :   0.9801 B(  6-C ,  8-C ) :   1.3966 B(  6-C ,  9-C ) :   1.3998
B(  7-C , 10-C ) :   1.3966 B(  7-C , 11-C ) :   1.3998 B(  8-C , 14-C ) :   1.3955
B(  8-C , 15-H ) :   0.9945 B(  9-C , 16-C ) :   1.3921 B(  9-C , 29-H ) :   0.9935
B( 10-C , 17-C ) :   1.3955 B( 10-C , 23-H ) :   0.9945 B( 11-C , 19-C ) :   1.3921
B( 11-C , 22-H ) :   0.9935 B( 14-C , 20-C ) :   1.3918 B( 14-C , 28-H ) :   0.9881
B( 16-C , 20-C ) :   1.3942 B( 16-C , 21-H ) :   0.9878 B( 17-C , 18-C ) :   1.3918
B( 17-C , 24-H ) :   0.9881 B( 18-C , 19-C ) :   1.3942 B( 18-C , 25-H ) :   0.9939
B( 19-C , 26-H ) :   0.9878 B( 20-C , 27-H ) :   0.9939

Dispersion correction           -0.005742603
FINAL SINGLE POINT ENERGY      -688.119152818780

DIPOLE MOMENT
-------------
                                X             Y             Z
Electronic contribution:     -0.00004       1.58912       0.77799
Nuclear contribution   :      0.00003      -1.12104      -0.54396
                        -----------------------------------------
Total Dipole Moment    :     -0.00001       0.46809       0.23403
                        -----------------------------------------
Magnitude (a.u.)       :      0.52333
Magnitude (Debye)      :      1.33020

Dispersion correction in the Hessian             ... Starting D4

VIBRATIONAL FREQUENCIES
-----------------------

Scaling factor for frequencies =  1.000000000  (already applied!)

   0:         0.00 cm**-1
   1:         0.00 cm**-1
   2:         0.00 cm**-1
   3:         0.00 cm**-1
   4:         0.00 cm**-1
   5:         0.00 cm**-1
   6:        48.41 cm**-1
   7:        50.21 cm**-1
   8:        62.37 cm**-1
   9:        87.22 cm**-1
  10:       124.21 cm**-1
  11:       159.41 cm**-1
  12:       249.18 cm**-1
  13:       285.79 cm**-1
  14:       347.34 cm**-1
  15:       402.44 cm**-1
  16:       416.04 cm**-1
  17:       429.25 cm**-1
  18:       429.74 cm**-1
  19:       474.01 cm**-1
  20:       536.63 cm**-1
  21:       572.06 cm**-1
  22:       625.88 cm**-1
  23:       626.74 cm**-1
  24:       671.97 cm**-1
  25:       677.99 cm**-1
  26:       694.68 cm**-1
  27:       723.67 cm**-1
  28:       723.95 cm**-1
  29:       724.09 cm**-1
  30:       773.55 cm**-1
  31:       800.64 cm**-1
  32:       806.23 cm**-1
  33:       878.73 cm**-1
  34:       879.11 cm**-1
  35:       896.36 cm**-1
  36:       922.34 cm**-1
  37:       972.90 cm**-1
  38:       973.34 cm**-1
  39:       978.90 cm**-1
  40:       988.80 cm**-1
  41:      1025.73 cm**-1
  42:      1027.30 cm**-1
  43:      1033.43 cm**-1
  44:      1033.45 cm**-1
  45:      1061.04 cm**-1
  46:      1061.08 cm**-1
  47:      1063.21 cm**-1
  48:      1064.54 cm**-1
  49:      1096.47 cm**-1
  50:      1110.57 cm**-1
  51:      1113.38 cm**-1
  52:      1119.81 cm**-1
  53:      1147.09 cm**-1
  54:      1162.51 cm**-1
  55:      1162.55 cm**-1
  56:      1190.38 cm**-1
  57:      1190.52 cm**-1
  58:      1268.58 cm**-1
  59:      1293.09 cm**-1
  60:      1326.41 cm**-1
  61:      1336.25 cm**-1
  62:      1357.61 cm**-1
  63:      1357.92 cm**-1
  64:      1406.16 cm**-1
  65:      1429.33 cm**-1
  66:      1471.91 cm**-1
  67:      1510.71 cm**-1
  68:      1516.00 cm**-1
  69:      1546.63 cm**-1
  70:      1563.49 cm**-1
  71:      1647.83 cm**-1
  72:      1651.95 cm**-1
  73:      1701.06 cm**-1
  74:      1705.52 cm**-1
  75:      1706.13 cm**-1
  76:      1707.87 cm**-1
  77:      3221.97 cm**-1
  78:      3221.98 cm**-1
  79:      3227.46 cm**-1
  80:      3227.49 cm**-1
  81:      3232.30 cm**-1
  82:      3232.31 cm**-1
  83:      3239.05 cm**-1
  84:      3239.06 cm**-1
  85:      3244.31 cm**-1
  86:      3244.31 cm**-1
  87:      3303.49 cm**-1
  88:      3304.38 cm**-1
  89:      3322.26 cm**-1

IR SPECTRUM
-----------

 Mode   freq       eps      Int      T**2         TX        TY        TZ
       cm**-1   L/(mol*cm) km/mol    a.u.
----------------------------------------------------------------------------
  6:     48.41   0.000063    0.32  0.000405  ( 0.000030  0.014702 -0.013753)
  7:     50.21   0.000017    0.08  0.000103  ( 0.010171 -0.000045  0.000042)
  8:     62.37   0.000130    0.66  0.000649  (-0.000000 -0.024173 -0.008050)
  9:     87.22   0.000006    0.03  0.000021  (-0.000004  0.004353  0.001346)
 10:    124.21   0.000002    0.01  0.000004  ( 0.002044  0.000000 -0.000001)
 11:    159.41   0.000002    0.01  0.000004  ( 0.002009  0.000002  0.000000)
 12:    249.18   0.000190    0.96  0.000238  ( 0.000001  0.007553  0.013438)
 13:    285.79   0.000369    1.87  0.000403  (-0.000002 -0.009434 -0.017730)
 14:    347.34   0.000000    0.00  0.000000  ( 0.000129  0.000001 -0.000001)
 15:    402.44   0.000166    0.84  0.000129  (-0.000002  0.004943 -0.010205)
 16:    416.04   0.000367    1.85  0.000275  ( 0.016588  0.000000 -0.000000)
 17:    429.25   0.000044    0.22  0.000032  ( 0.000004 -0.002623 -0.005045)
 18:    429.74   0.000061    0.31  0.000044  ( 0.006629  0.000002  0.000003)
 19:    474.01   0.000001    0.00  0.000000  ( 0.000639  0.000003  0.000001)
 20:    536.63   0.006598   33.34  0.003837  (-0.000002 -0.022838 -0.057579)
 21:    572.06   0.000518    2.62  0.000283  ( 0.016808 -0.000004 -0.000004)
 22:    625.88   0.000965    4.87  0.000481  (-0.000000 -0.015003  0.015995)
 23:    626.74   0.000001    0.00  0.000000  ( 0.000579  0.000001 -0.000002)
 24:    671.97   0.005699   28.80  0.002647  (-0.000001  0.037267 -0.035468)
 25:    677.99   0.000188    0.95  0.000086  ( 0.009291  0.000011 -0.000007)
 26:    694.68   0.000337    1.70  0.000151  ( 0.000001 -0.012011  0.002684)
 27:    723.67   0.002114   10.68  0.000912  (-0.030192  0.000011  0.000030)
 28:    723.95   0.022379  113.09  0.009646  ( 0.000112 -0.029471 -0.093691)
 29:    724.09   0.001524    7.70  0.000657  ( 0.025623  0.000137  0.000447)
 30:    773.55   0.013030   65.85  0.005256  ( 0.000007 -0.026423  0.067515)
 31:    800.64   0.020829  105.26  0.008119  (-0.000001  0.019289  0.088014)
 32:    806.23   0.001434    7.25  0.000555  (-0.023557 -0.000001 -0.000004)
 33:    878.73   0.000190    0.96  0.000068  ( 0.000003 -0.003526  0.007425)
 34:    879.11   0.000007    0.03  0.000002  ( 0.001542  0.000007 -0.000016)
 35:    896.36   0.004880   24.66  0.001699  ( 0.000009 -0.025282  0.032556)
 36:    922.34   0.000162    0.82  0.000055  ( 0.007397 -0.000002  0.000004)
 37:    972.90   0.000980    4.95  0.000314  (-0.017729  0.000026  0.000050)
 38:    973.34   0.002123   10.73  0.000681  ( 0.000038  0.012194  0.023062)
 39:    978.90   0.000763    3.86  0.000243  (-0.015596 -0.000001  0.000004)
 40:    988.80   0.000006    0.03  0.000002  ( 0.000000 -0.000452 -0.001246)
 41:   1025.73   0.001285    6.49  0.000391  ( 0.019770 -0.000002 -0.000001)
 42:   1027.30   0.000163    0.82  0.000049  ( 0.000007  0.006484  0.002725)
 43:   1033.43   0.000000    0.00  0.000000  (-0.000282 -0.000107 -0.000167)
 44:   1033.45   0.000047    0.24  0.000014  ( 0.000014 -0.002029 -0.003171)
 45:   1061.04   0.000061    0.31  0.000018  ( 0.000004  0.003556  0.002302)
 46:   1061.08   0.000000    0.00  0.000000  ( 0.000279 -0.000039 -0.000027)
 47:   1063.21   0.000421    2.13  0.000124  ( 0.000007 -0.009971 -0.004922)
 48:   1064.54   0.001867    9.43  0.000547  (-0.023392 -0.000004 -0.000001)
 49:   1096.47   0.019210   97.08  0.005467  ( 0.073941  0.000004 -0.000006)
 50:   1110.57   0.002337   11.81  0.000657  (-0.000008  0.014062 -0.021425)
 51:   1113.38   0.000002    0.01  0.000001  ( 0.000794  0.000004  0.000001)
 52:   1119.81   0.008253   41.71  0.002300  (-0.000001  0.047918  0.001979)
 53:   1147.09   0.000367    1.86  0.000100  ( 0.000001  0.009984 -0.000462)
 54:   1162.51   0.000004    0.02  0.000001  ( 0.000001 -0.000660  0.000849)
 55:   1162.55   0.000002    0.01  0.000000  (-0.000647 -0.000003  0.000003)
 56:   1190.38   0.000005    0.03  0.000001  (-0.001171  0.000003  0.000003)
 57:   1190.52   0.000013    0.06  0.000003  ( 0.000003  0.000618  0.001720)
 58:   1268.58   0.005138   25.97  0.001264  (-0.035552 -0.000002  0.000002)
 59:   1293.09   0.012779   64.58  0.003084  ( 0.055533  0.000001 -0.000002)
 60:   1326.41   0.000362    1.83  0.000085  ( 0.000000  0.002637 -0.008838)
 61:   1336.25   0.000002    0.01  0.000000  ( 0.000672  0.000001 -0.000001)
 62:   1357.61   0.001575    7.96  0.000362  (-0.000012  0.017471 -0.007532)
 63:   1357.92   0.000268    1.36  0.000062  (-0.007851 -0.000030  0.000012)
 64:   1406.16   0.002553   12.90  0.000567  (-0.000001 -0.023713 -0.002059)
 65:   1429.33   0.002087   10.55  0.000456  (-0.021346  0.000002  0.000001)
 66:   1471.91   0.001117    5.65  0.000237  ( 0.000002 -0.014971  0.003569)
 67:   1510.71   0.000050    0.25  0.000010  (-0.003220  0.000002 -0.000002)
 68:   1516.00   0.002526   12.76  0.000520  (-0.000001 -0.021079  0.008693)
 69:   1546.63   0.014655   74.06  0.002957  (-0.054379 -0.000001  0.000000)
 70:   1563.49   0.003605   18.22  0.000720  (-0.000000 -0.024210 -0.011549)
 71:   1647.83   0.080724  407.95  0.015287  ( 0.123642  0.000004 -0.000007)
 72:   1651.95   0.000464    2.34  0.000088  ( 0.000016  0.004724  0.008080)
 73:   1701.06   0.000696    3.52  0.000128  ( 0.011299  0.000002  0.000000)
 74:   1705.52   0.002848   14.39  0.000521  ( 0.000006 -0.022103  0.005713)
 75:   1706.13   0.006294   31.81  0.001151  (-0.033929 -0.000005  0.000001)
 76:   1707.87   0.000280    1.42  0.000051  (-0.000007  0.005579  0.004485)
 77:   3221.97   0.000058    0.29  0.000006  (-0.002372  0.000052  0.000013)
 78:   3221.98   0.000006    0.03  0.000001  ( 0.000169  0.000704  0.000185)
 79:   3227.46   0.001126    5.69  0.000109  ( 0.000022 -0.009927  0.003213)
 80:   3227.49   0.000005    0.02  0.000000  ( 0.000439  0.000475 -0.000154)
 81:   3232.30   0.000118    0.60  0.000011  ( 0.000682  0.000987 -0.003151)
 82:   3232.31   0.001367    6.91  0.000132  ( 0.011485 -0.000057  0.000187)
 83:   3239.05   0.000242    1.22  0.000023  (-0.000116  0.004739 -0.000918)
 84:   3239.06   0.000017    0.08  0.000002  (-0.001168 -0.000469  0.000091)
 85:   3244.31   0.000916    4.63  0.000088  ( 0.009376 -0.000386 -0.000143)
 86:   3244.31   0.000122    0.62  0.000012  (-0.001204 -0.003011 -0.001108)
 87:   3303.49   0.016477   83.27  0.001556  ( 0.000009 -0.035437 -0.017340)
 88:   3304.38   0.007609   38.45  0.000719  ( 0.026807  0.000010  0.000003)
 89:   3322.26   0.004931   24.92  0.000463  ( 0.000004  0.019425  0.009265)

--------------------------
THERMOCHEMISTRY AT 298.15K
--------------------------

Temperature         ... 298.15 K
Pressure            ... 1.00 atm
Total Mass          ... 221.28 AMU

Throughout the following assumptions are being made:
  (1) The electronic state is orbitally nondegenerate
  (2) There are no thermally accessible electronically excited states
  (3) Hindered rotations indicated by low frequency modes are not
      treated as such but are treated as vibrations and this may
      cause some error
  (4) All equations used are the standard statistical mechanics
      equations for an ideal gas
  (5) All vibrations are strictly harmonic

freq.      48.41  E(vib)   ...       0.53
freq.      50.21  E(vib)   ...       0.52
freq.      62.37  E(vib)   ...       0.51
freq.      87.22  E(vib)   ...       0.48
freq.     124.21  E(vib)   ...       0.43
freq.     159.41  E(vib)   ...       0.39
freq.     249.18  E(vib)   ...       0.31
freq.     285.79  E(vib)   ...       0.27
freq.     347.34  E(vib)   ...       0.23
freq.     402.44  E(vib)   ...       0.19
freq.     416.04  E(vib)   ...       0.18
freq.     429.25  E(vib)   ...       0.18
freq.     429.74  E(vib)   ...       0.18
freq.     474.01  E(vib)   ...       0.15
freq.     536.63  E(vib)   ...       0.12
freq.     572.06  E(vib)   ...       0.11
freq.     625.88  E(vib)   ...       0.09
freq.     626.74  E(vib)   ...       0.09
freq.     671.97  E(vib)   ...       0.08
freq.     677.99  E(vib)   ...       0.08
freq.     694.68  E(vib)   ...       0.07
freq.     723.67  E(vib)   ...       0.06
freq.     723.95  E(vib)   ...       0.06
freq.     724.09  E(vib)   ...       0.06
freq.     773.55  E(vib)   ...       0.05
freq.     800.64  E(vib)   ...       0.05
freq.     806.23  E(vib)   ...       0.05
freq.     878.73  E(vib)   ...       0.04
freq.     879.11  E(vib)   ...       0.04
freq.     896.36  E(vib)   ...       0.03
freq.     922.34  E(vib)   ...       0.03
freq.     972.90  E(vib)   ...       0.03
freq.     973.34  E(vib)   ...       0.03
freq.     978.90  E(vib)   ...       0.03
freq.     988.80  E(vib)   ...       0.02
freq.    1025.73  E(vib)   ...       0.02
freq.    1027.30  E(vib)   ...       0.02
freq.    1033.43  E(vib)   ...       0.02
freq.    1033.45  E(vib)   ...       0.02
freq.    1061.04  E(vib)   ...       0.02
freq.    1061.08  E(vib)   ...       0.02
freq.    1063.21  E(vib)   ...       0.02
freq.    1064.54  E(vib)   ...       0.02
freq.    1096.47  E(vib)   ...       0.02
freq.    1110.57  E(vib)   ...       0.02
freq.    1113.38  E(vib)   ...       0.01
freq.    1119.81  E(vib)   ...       0.01
freq.    1147.09  E(vib)   ...       0.01
freq.    1162.51  E(vib)   ...       0.01
freq.    1162.55  E(vib)   ...       0.01
freq.    1190.38  E(vib)   ...       0.01
freq.    1190.52  E(vib)   ...       0.01
freq.    1268.58  E(vib)   ...       0.01
freq.    1293.09  E(vib)   ...       0.01
freq.    1326.41  E(vib)   ...       0.01
freq.    1336.25  E(vib)   ...       0.01
freq.    1357.61  E(vib)   ...       0.01
freq.    1357.92  E(vib)   ...       0.01
freq.    1406.16  E(vib)   ...       0.00
freq.    1429.33  E(vib)   ...       0.00
freq.    1471.91  E(vib)   ...       0.00
freq.    1510.71  E(vib)   ...       0.00
freq.    1516.00  E(vib)   ...       0.00
freq.    1546.63  E(vib)   ...       0.00
freq.    1563.49  E(vib)   ...       0.00
freq.    1647.83  E(vib)   ...       0.00
freq.    1651.95  E(vib)   ...       0.00
freq.    1701.06  E(vib)   ...       0.00
freq.    1705.52  E(vib)   ...       0.00
freq.    1706.13  E(vib)   ...       0.00
freq.    1707.87  E(vib)   ...       0.00
freq.    3221.97  E(vib)   ...       0.00
freq.    3221.98  E(vib)   ...       0.00
freq.    3227.46  E(vib)   ...       0.00
freq.    3227.49  E(vib)   ...       0.00
freq.    3232.30  E(vib)   ...       0.00
freq.    3232.31  E(vib)   ...       0.00
freq.    3239.05  E(vib)   ...       0.00
freq.    3239.06  E(vib)   ...       0.00
freq.    3244.31  E(vib)   ...       0.00
freq.    3244.31  E(vib)   ...       0.00
freq.    3303.49  E(vib)   ...       0.00
freq.    3304.38  E(vib)   ...       0.00
freq.    3322.26  E(vib)   ...       0.00

------------
INNER ENERGY
------------

The inner energy is: U= E(el) + E(ZPE) + E(vib) + E(rot) + E(trans)
    E(el)   - is the total energy from the electronic structure calculation
              = E(kin-el) + E(nuc-el) + E(el-el) + E(nuc-nuc)
    E(ZPE)  - the the zero temperature vibrational energy from the frequency calculation
    E(vib)  - the the finite temperature correction to E(ZPE) due to population
              of excited vibrational states
    E(rot)  - is the rotational thermal energy
    E(trans)- is the translational thermal energy

Summary of contributions to the inner energy U:
Electronic energy                ...   -688.11915282 Eh
Zero point energy                ...      0.24932740 Eh     156.45 kcal/mol
Thermal vibrational correction   ...      0.00976617 Eh       6.13 kcal/mol
Thermal rotational correction    ...      0.00141627 Eh       0.89 kcal/mol
Thermal translational correction ...      0.00141627 Eh       0.89 kcal/mol
-----------------------------------------------------------------------
Total thermal energy                   -687.85722671 Eh

Summary of corrections to the electronic energy:
(perhaps to be used in another calculation)
Total thermal correction                  0.01259871 Eh       7.91 kcal/mol
Non-thermal (ZPE) correction              0.24932740 Eh     156.45 kcal/mol
-----------------------------------------------------------------------
Total correction                          0.26192611 Eh     164.36 kcal/mol

--------
ENTHALPY
--------

The enthalpy is H = U + kB*T
                kB is Boltzmann's constant
Total free energy                 ...   -687.85722671 Eh
Thermal Enthalpy correction       ...      0.00094421 Eh       0.59 kcal/mol
-----------------------------------------------------------------------
Total Enthalpy                    ...   -687.85628250 Eh

Note: Only C1 symmetry has been detected, increase convergence thresholds
      if your molecule has a higher symmetry. Symmetry factor of 1.0 is
      used for the rotational entropy correction.

Note: Rotational entropy computed according to Herzberg
Infrared and Raman Spectra, Chapter V,1, Van Nostrand Reinhold, 1945
Point Group:  C1, Symmetry Number:   1
Rotational constants in cm-1:     0.053372     0.006862     0.006307

Vibrational entropy computed according to the QRRHO of S. Grimme
Chem.Eur.J. 2012 18 9955

-------
ENTROPY

                             ****ORCA TERMINATED NORMALLY****
TOTAL RUN TIME: 0 days 1 hours 42 minutes 12 seconds 117 msec
