                         Program Version 5.0.4 -  RELEASE  -
|  1> # ORCA 5.0.4 - /users/bwb16179/postgrad/2024_03/DFT_Crest_Conformers/Opt/prot/7_prot_aq_2.inp # write input file
|  2> # Basic Mode
|  3> #
|  4> ! Opt Freq wB97X Def2-SVP D4 SlowConv TightSCF Defgrid2 Def2/J RIJCOSX CPCM(Water)
|  5>
|  6>
|  7>
|  8> %maxcore 4500
|  9>
| 10> %geom
| 11> Maxiter 150
| 12> END
| 13>
| 14> * xyzfile 1 1 7_prot_aq_2.xyz
| 15>
| 16>                          ****END OF INPUT****
 Total Charge           Charge          ....    1
 Multiplicity           Mult            ....    1
 Number of Electrons    NEL             ....  116
Dispersion correction           -0.005750947
FINAL SINGLE POINT ENERGY      -688.113608436940
Dispersion correction            ... Starting D4
Dispersion correction           -0.005730253
FINAL SINGLE POINT ENERGY      -688.117574318448
Dispersion correction            ... Starting D4
Dispersion correction           -0.005727786
FINAL SINGLE POINT ENERGY      -688.117711332188
Dispersion correction            ... Starting D4
FINAL SINGLE POINT ENERGY      -688.117781022634
FINAL SINGLE POINT ENERGY      -688.117823547797
FINAL SINGLE POINT ENERGY      -688.117869961182
FINAL SINGLE POINT ENERGY      -688.118007142491
FINAL SINGLE POINT ENERGY      -688.117566583966
FINAL SINGLE POINT ENERGY      -688.118124475370
FINAL SINGLE POINT ENERGY      -688.118929085751
FINAL SINGLE POINT ENERGY      -688.118893909288
FINAL SINGLE POINT ENERGY      -688.119005110900
Dispersion correction           -0.005734628
FINAL SINGLE POINT ENERGY      -688.119017543805
Dispersion correction            ... Starting D4
Dispersion correction           -0.005735076
FINAL SINGLE POINT ENERGY      -688.119019809192
Dispersion correction            ... Starting D4
                    ***********************HURRAY********************

CARTESIAN COORDINATES (ANGSTROEM)
---------------------------------
  N     -1.082684    0.543265    0.008488
  C     -0.001389   -0.234919   -0.024255
  N      1.081248    0.541243    0.009364
  H     -0.002468   -1.324537   -0.072090
  C      0.679348    1.863417    0.066449
  C     -0.678715    1.864713    0.064624
  C     -2.440155    0.074057   -0.000498
  C      2.438789    0.072616   -0.020421
  C     -3.356464    0.665981   -0.867619
  C     -2.808573   -0.960651    0.856690
  C      3.353968    0.595915    0.890832
  C      2.808771   -0.890698   -0.956649
  H      1.394277    2.683183    0.096767
  H     -1.392312    2.684936    0.110231
  C     -4.671677    0.206406   -0.871315
  H     -3.042305    1.468720   -1.540149
  C     -4.124214   -1.419168    0.832874
  C      4.670067    0.140355    0.858426
  C      5.055369   -0.831724   -0.065628
  C      4.125405   -1.346995   -0.968598
  C     -5.055332   -0.835932   -0.026436
  H     -4.422616   -2.231192    1.500781
  H      2.078842   -1.270239   -1.676806
  H      3.036868    1.342727    1.623716
  H      5.396352    0.542311    1.569558
  H      6.088212   -1.189676   -0.083233
  H      4.425766   -2.103293   -1.698215
  H     -6.087763   -1.195302   -0.036349
  H     -5.398576    0.661919   -1.548746
  H     -2.078006   -1.394175    1.544953

 Multiplicity           Mult            ....    1
 Number of Electrons    NEL             ....  116
 Basis Dimension        Dim             ....  303

ORBITAL ENERGIES
----------------

  NO   OCC          E(Eh)            E(eV)
   0   2.0000     -14.529797      -395.3759
   1   2.0000     -14.529770      -395.3751
   2   2.0000     -10.399540      -282.9859
   3   2.0000     -10.346910      -281.5537
   4   2.0000     -10.346854      -281.5522
   5   2.0000     -10.346150      -281.5331
   6   2.0000     -10.345562      -281.5170
   7   2.0000     -10.300620      -280.2941
   8   2.0000     -10.300561      -280.2925
   9   2.0000     -10.300297      -280.2853
  10   2.0000     -10.300263      -280.2844
  11   2.0000     -10.293639      -280.1041
  12   2.0000     -10.293629      -280.1039
  13   2.0000     -10.293583      -280.1026
  14   2.0000     -10.293561      -280.1020
  15   2.0000     -10.291855      -280.0556
  16   2.0000     -10.291833      -280.0550
  17   2.0000      -1.232420       -33.5358
  18   2.0000      -1.117645       -30.4127
  19   2.0000      -1.016451       -27.6590
  20   2.0000      -0.997964       -27.1560
  21   2.0000      -0.945984       -25.7415
  22   2.0000      -0.917622       -24.9698
  23   2.0000      -0.893398       -24.3106
  24   2.0000      -0.890262       -24.2253
  25   2.0000      -0.883134       -24.0313
  26   2.0000      -0.810614       -22.0579
  27   2.0000      -0.798006       -21.7148
  28   2.0000      -0.751627       -20.4528
  29   2.0000      -0.747944       -20.3526
  30   2.0000      -0.733225       -19.9521
  31   2.0000      -0.732573       -19.9343
  32   2.0000      -0.699045       -19.0220
  33   2.0000      -0.668449       -18.1894
  34   2.0000      -0.639422       -17.3996
  35   2.0000      -0.628088       -17.0912
  36   2.0000      -0.611621       -16.6431
  37   2.0000      -0.608048       -16.5458
  38   2.0000      -0.592247       -16.1159
  39   2.0000      -0.591226       -16.0881
  40   2.0000      -0.584150       -15.8955
  41   2.0000      -0.569445       -15.4954
  42   2.0000      -0.559086       -15.2135
  43   2.0000      -0.557316       -15.1654
  44   2.0000      -0.548770       -14.9328
  45   2.0000      -0.547650       -14.9023
  46   2.0000      -0.522703       -14.2235
  47   2.0000      -0.507395       -13.8069
  48   2.0000      -0.481020       -13.0892
  49   2.0000      -0.478290       -13.0149
  50   2.0000      -0.477425       -12.9914
  51   2.0000      -0.466452       -12.6928
  52   2.0000      -0.454341       -12.3632
  53   2.0000      -0.392578       -10.6826
  54   2.0000      -0.369780       -10.0622
  55   2.0000      -0.369440       -10.0530
  56   2.0000      -0.367805       -10.0085
  57   2.0000      -0.358405        -9.7527
  58   0.0000       0.020137         0.5479
  59   0.0000       0.045656         1.2424
  60   0.0000       0.051615         1.4045
  61   0.0000       0.052357         1.4247
  62   0.0000       0.079012         2.1500

MULLIKEN ATOMIC CHARGES
-----------------------
   0 N :   -0.170053
   1 C :    0.249363
   2 N :   -0.170092
   3 H :    0.152692
   4 C :    0.081914
   5 C :    0.082424
   6 C :    0.111786
   7 C :    0.112638
   8 C :   -0.020127
   9 C :   -0.026073
  10 C :   -0.020812
  11 C :   -0.025984
  12 H :    0.116192
  13 H :    0.116042
  14 C :   -0.031966
  15 H :    0.053296
  16 C :   -0.030356
  17 C :   -0.031649
  18 C :   -0.004426
  19 C :   -0.030246
  20 C :   -0.004221
  21 H :    0.055144
  22 H :    0.054626
  23 H :    0.053332
  24 H :    0.055283
  25 H :    0.053059
  26 H :    0.055113
  27 H :    0.053048
  28 H :    0.055360
  29 H :    0.054692
Sum of atomic charges:    1.0000000

LOEWDIN ATOMIC CHARGES
----------------------
   0 N :    0.110951
   1 C :    0.149082
   2 N :    0.110938
   3 H :    0.077059
   4 C :    0.034217
   5 C :    0.034389
   6 C :    0.010087
   7 C :    0.010361
   8 C :   -0.019946
   9 C :   -0.021960
  10 C :   -0.020094
  11 C :   -0.021959
  12 H :    0.067535
  13 H :    0.067597
  14 C :   -0.015096
  15 H :    0.053235
  16 C :   -0.015061
  17 C :   -0.015059
  18 C :   -0.015598
  19 C :   -0.014962
  20 C :   -0.015497
  21 H :    0.048985
  22 H :    0.053093
  23 H :    0.053136
  24 H :    0.048935
  25 H :    0.047340
  26 H :    0.048982
  27 H :    0.047336
  28 H :    0.048925
  29 H :    0.053050

  Mayer bond orders larger than 0.100000
B(  0-N ,  1-C ) :   1.3411 B(  0-N ,  5-C ) :   1.1459 B(  0-N ,  6-C ) :   0.8681
B(  1-C ,  2-N ) :   1.3412 B(  1-C ,  3-H ) :   0.9619 B(  2-N ,  4-C ) :   1.1459
B(  2-N ,  7-C ) :   0.8683 B(  4-C ,  5-C ) :   1.6242 B(  4-C , 12-H ) :   0.9806
B(  5-C , 13-H ) :   0.9808 B(  6-C ,  8-C ) :   1.3986 B(  6-C ,  9-C ) :   1.4008
B(  7-C , 10-C ) :   1.3986 B(  7-C , 11-C ) :   1.4007 B(  8-C , 14-C ) :   1.3950
B(  8-C , 15-H ) :   0.9949 B(  9-C , 16-C ) :   1.3909 B(  9-C , 29-H ) :   0.9936
B( 10-C , 17-C ) :   1.3948 B( 10-C , 23-H ) :   0.9947 B( 11-C , 19-C ) :   1.3908
B( 11-C , 22-H ) :   0.9936 B( 14-C , 20-C ) :   1.3912 B( 14-C , 28-H ) :   0.9880
B( 16-C , 20-C ) :   1.3947 B( 16-C , 21-H ) :   0.9879 B( 17-C , 18-C ) :   1.3914
B( 17-C , 24-H ) :   0.9881 B( 18-C , 19-C ) :   1.3948 B( 18-C , 25-H ) :   0.9940
B( 19-C , 26-H ) :   0.9879 B( 20-C , 27-H ) :   0.9940

Dispersion correction           -0.005735499
FINAL SINGLE POINT ENERGY      -688.119020626214

DIPOLE MOMENT
-------------
                                X             Y             Z
Electronic contribution:     -0.00219       1.85083       0.06865
Nuclear contribution   :      0.00099      -1.31424      -0.04526
                        -----------------------------------------
Total Dipole Moment    :     -0.00120       0.53659       0.02339
                        -----------------------------------------
Magnitude (a.u.)       :      0.53710
Magnitude (Debye)      :      1.36520

Dispersion correction in the Hessian             ... Starting D4

VIBRATIONAL FREQUENCIES
-----------------------

Scaling factor for frequencies =  1.000000000  (already applied!)

   0:         0.00 cm**-1
   1:         0.00 cm**-1
   2:         0.00 cm**-1
   3:         0.00 cm**-1
   4:         0.00 cm**-1
   5:         0.00 cm**-1
   6:        28.15 cm**-1
   7:        43.07 cm**-1
   8:        64.72 cm**-1
   9:        88.93 cm**-1
  10:       130.60 cm**-1
  11:       145.20 cm**-1
  12:       251.93 cm**-1
  13:       308.16 cm**-1
  14:       315.14 cm**-1
  15:       410.87 cm**-1
  16:       425.02 cm**-1
  17:       427.21 cm**-1
  18:       432.52 cm**-1
  19:       449.51 cm**-1
  20:       537.89 cm**-1
  21:       571.51 cm**-1
  22:       625.27 cm**-1
  23:       626.00 cm**-1
  24:       674.73 cm**-1
  25:       675.37 cm**-1
  26:       694.28 cm**-1
  27:       721.28 cm**-1
  28:       721.92 cm**-1
  29:       724.37 cm**-1
  30:       759.70 cm**-1
  31:       799.60 cm**-1
  32:       802.95 cm**-1
  33:       872.62 cm**-1
  34:       876.99 cm**-1
  35:       896.87 cm**-1
  36:       910.43 cm**-1
  37:       971.25 cm**-1
  38:       974.24 cm**-1
  39:       978.74 cm**-1
  40:       988.25 cm**-1
  41:      1025.54 cm**-1
  42:      1026.94 cm**-1
  43:      1028.31 cm**-1
  44:      1031.62 cm**-1
  45:      1057.60 cm**-1
  46:      1060.48 cm**-1
  47:      1061.37 cm**-1
  48:      1063.34 cm**-1
  49:      1094.47 cm**-1
  50:      1106.47 cm**-1
  51:      1111.56 cm**-1
  52:      1114.80 cm**-1
  53:      1146.69 cm**-1
  54:      1160.85 cm**-1
  55:      1163.98 cm**-1
  56:      1184.47 cm**-1
  57:      1189.08 cm**-1
  58:      1264.08 cm**-1
  59:      1290.21 cm**-1
  60:      1324.20 cm**-1
  61:      1334.68 cm**-1
  62:      1355.47 cm**-1
  63:      1356.55 cm**-1
  64:      1406.02 cm**-1
  65:      1428.78 cm**-1
  66:      1471.53 cm**-1
  67:      1510.07 cm**-1
  68:      1514.72 cm**-1
  69:      1545.29 cm**-1
  70:      1562.31 cm**-1
  71:      1647.41 cm**-1
  72:      1650.09 cm**-1
  73:      1700.39 cm**-1
  74:      1703.69 cm**-1
  75:      1705.36 cm**-1
  76:      1707.35 cm**-1
  77:      3221.05 cm**-1
  78:      3221.12 cm**-1
  79:      3226.46 cm**-1
  80:      3226.72 cm**-1
  81:      3231.10 cm**-1
  82:      3231.21 cm**-1
  83:      3237.66 cm**-1
  84:      3237.87 cm**-1
  85:      3243.60 cm**-1
  86:      3243.62 cm**-1
  87:      3299.47 cm**-1
  88:      3304.63 cm**-1
  89:      3322.47 cm**-1

IR SPECTRUM
-----------

 Mode   freq       eps      Int      T**2         TX        TY        TZ
       cm**-1   L/(mol*cm) km/mol    a.u.
----------------------------------------------------------------------------
  6:     28.15   0.000018    0.09  0.000200  ( 0.003402  0.011599 -0.007320)
  7:     43.07   0.000056    0.28  0.000408  (-0.006864  0.005671  0.018127)
  8:     64.72   0.000105    0.53  0.000507  ( 0.002388  0.022225 -0.002644)
  9:     88.93   0.000101    0.51  0.000356  ( 0.018320 -0.001549 -0.004203)
 10:    130.60   0.000076    0.38  0.000181  ( 0.000085  0.013390  0.001269)
 11:    145.20   0.000098    0.49  0.000210  ( 0.003236 -0.000744  0.014102)
 12:    251.93   0.000034    0.17  0.000042  (-0.000024 -0.006495 -0.000466)
 13:    308.16   0.000198    1.00  0.000201  ( 0.000021 -0.014165  0.000053)
 14:    315.14   0.000063    0.32  0.000063  ( 0.004145 -0.000045  0.006756)
 15:    410.87   0.000272    1.37  0.000206  (-0.011933 -0.000382  0.007984)
 16:    425.02   0.000039    0.20  0.000028  ( 0.002124 -0.002690 -0.004092)
 17:    427.21   0.000053    0.27  0.000038  ( 0.002293  0.003262 -0.004741)
 18:    432.52   0.000023    0.12  0.000017  ( 0.000450 -0.004052 -0.000396)
 19:    449.51   0.000795    4.02  0.000552  (-0.009793 -0.000117 -0.021360)
 20:    537.89   0.003971   20.07  0.002304  ( 0.000695 -0.047934 -0.002330)
 21:    571.51   0.002493   12.60  0.001361  (-0.016270 -0.001126  0.033091)
 22:    625.27   0.001009    5.10  0.000504  (-0.006091  0.001226 -0.021566)
 23:    626.00   0.000105    0.53  0.000052  ( 0.000268  0.007156  0.000950)
 24:    674.73   0.006055   30.60  0.002800  ( 0.008931  0.007538  0.051612)
 25:    675.37   0.002173   10.98  0.001004  ( 0.004029 -0.023354  0.021031)
 26:    694.28   0.000145    0.73  0.000065  (-0.000415  0.008051  0.000173)
 27:    721.28   0.011620   58.72  0.005027  (-0.001444  0.044701  0.055019)
 28:    721.92   0.004155   21.00  0.001796  (-0.036370  0.021141  0.005149)
 29:    724.37   0.012267   61.99  0.005285  (-0.017338 -0.048467  0.051334)
 30:    759.70   0.010744   54.30  0.004413  ( 0.002658  0.003232 -0.066302)
 31:    799.60   0.009393   47.47  0.003666  ( 0.013955 -0.043284 -0.039971)
 32:    802.95   0.011768   59.47  0.004574  ( 0.019748  0.035699 -0.053938)
 33:    872.62   0.000035    0.18  0.000012  (-0.001376 -0.000378 -0.003232)
 34:    876.99   0.000105    0.53  0.000037  ( 0.000901 -0.002332  0.005563)
 35:    896.87   0.004457   22.52  0.001551  ( 0.002290 -0.001679  0.039278)
 36:    910.43   0.000023    0.12  0.000008  (-0.000998 -0.002499  0.000751)
 37:    971.25   0.001267    6.40  0.000407  ( 0.010577 -0.014625 -0.009021)
 38:    974.24   0.001461    7.39  0.000468  ( 0.014990  0.012648 -0.009135)
 39:    978.74   0.000919    4.64  0.000293  (-0.016006  0.002000 -0.005732)
 40:    988.25   0.000003    0.02  0.000001  (-0.000305  0.000177  0.000910)
 41:   1025.54   0.001369    6.92  0.000417  (-0.020414  0.000060 -0.000068)
 42:   1026.94   0.000158    0.80  0.000048  ( 0.000158 -0.006927 -0.000197)
 43:   1028.31   0.000036    0.18  0.000011  ( 0.000606  0.002583  0.001956)
 44:   1031.62   0.000043    0.22  0.000013  ( 0.000932 -0.002408  0.002508)
 45:   1057.60   0.000031    0.16  0.000009  ( 0.001970 -0.002154 -0.000797)
 46:   1060.48   0.000857    4.33  0.000252  (-0.012555  0.009636 -0.001292)
 47:   1061.37   0.000099    0.50  0.000029  (-0.005348  0.000748 -0.000050)
 48:   1063.34   0.001530    7.73  0.000449  ( 0.019986  0.006737  0.002067)
 49:   1094.47   0.018585   93.92  0.005299  ( 0.072532  0.000419  0.006158)
 50:   1106.47   0.000593    3.00  0.000167  (-0.003380 -0.012362  0.001768)
 51:   1111.56   0.004791   24.21  0.001345  ( 0.005288 -0.022325 -0.028613)
 52:   1114.80   0.005329   26.93  0.001492  ( 0.000537  0.035304 -0.015659)
 53:   1146.69   0.000539    2.72  0.000147  (-0.000821 -0.012029 -0.001140)
 54:   1160.85   0.000024    0.12  0.000006  ( 0.001501  0.000367  0.002006)
 55:   1163.98   0.000015    0.07  0.000004  (-0.000148  0.000861 -0.001788)
 56:   1184.47   0.000005    0.03  0.000001  (-0.000286 -0.000374  0.001100)
 57:   1189.08   0.000005    0.03  0.000001  ( 0.000880 -0.000756 -0.000281)
 58:   1264.08   0.004203   21.24  0.001037  ( 0.032208  0.000100  0.000365)
 59:   1290.21   0.013165   66.53  0.003184  ( 0.056421 -0.000075 -0.000981)
 60:   1324.20   0.000010    0.05  0.000002  ( 0.000558  0.001255 -0.000604)
 61:   1334.68   0.000424    2.14  0.000099  (-0.000453 -0.000486  0.009940)
 62:   1355.47   0.000932    4.71  0.000215  (-0.004873 -0.009003 -0.010482)
 63:   1356.55   0.001165    5.89  0.000268  ( 0.006205 -0.008223  0.012726)
 64:   1406.02   0.002121   10.72  0.000471  (-0.000526 -0.021661 -0.001165)
 65:   1428.78   0.002118   10.70  0.000463  (-0.019606  0.000854 -0.008800)
 66:   1471.53   0.000696    3.52  0.000148  ( 0.000148 -0.012140 -0.000332)
 67:   1510.07   0.001981   10.01  0.000409  (-0.004729  0.000463 -0.019666)
 68:   1514.72   0.000961    4.85  0.000198  ( 0.000528  0.014046 -0.000565)
 69:   1545.29   0.014454   73.04  0.002919  (-0.054015  0.001118  0.000133)
 70:   1562.31   0.003699   18.69  0.000739  ( 0.001500  0.027104  0.001433)
 71:   1647.41   0.079357  401.04  0.015032  ( 0.122604 -0.000138 -0.000873)
 72:   1650.09   0.000361    1.82  0.000068  ( 0.003309  0.007542  0.000608)
 73:   1700.39   0.002013   10.17  0.000369  ( 0.010578 -0.001596  0.015970)
 74:   1703.69   0.001554    7.85  0.000285  (-0.002444 -0.016629 -0.001445)
 75:   1705.36   0.006130   30.98  0.001122  ( 0.033464 -0.001349 -0.000254)
 76:   1707.35   0.000205    1.03  0.000037  (-0.002265 -0.005663 -0.000485)
 77:   3221.05   0.000066    0.33  0.000006  ( 0.002484  0.000019  0.000474)
 78:   3221.12   0.000032    0.16  0.000003  ( 0.001755 -0.000128  0.000208)
 79:   3226.46   0.000528    2.67  0.000051  (-0.001147  0.004684 -0.005276)
 80:   3226.72   0.000555    2.81  0.000054  (-0.001017 -0.004731 -0.005503)
 81:   3231.10   0.000625    3.16  0.000060  ( 0.007486  0.002036  0.000451)
 82:   3231.21   0.000599    3.03  0.000058  ( 0.007344 -0.001923  0.000449)
 83:   3237.66   0.000168    0.85  0.000016  ( 0.001515 -0.002648  0.002627)
 84:   3237.87   0.000149    0.75  0.000014  ( 0.001046  0.002512  0.002629)
 85:   3243.60   0.000766    3.87  0.000074  (-0.008399 -0.001746  0.000257)
 86:   3243.62   0.000334    1.69  0.000032  (-0.004925  0.002793  0.000264)
 87:   3299.47   0.016380   82.78  0.001549  (-0.000074 -0.039317 -0.001839)
 88:   3304.63   0.007521   38.01  0.000710  ( 0.026649  0.000001  0.000157)
 89:   3322.47   0.005220   26.38  0.000490  (-0.000111  0.022116  0.001092)

--------------------------
THERMOCHEMISTRY AT 298.15K
--------------------------

Temperature         ... 298.15 K
Pressure            ... 1.00 atm
Total Mass          ... 221.28 AMU

Throughout the following assumptions are being made:
  (1) The electronic state is orbitally nondegenerate
  (2) There are no thermally accessible electronically excited states
  (3) Hindered rotations indicated by low frequency modes are not
      treated as such but are treated as vibrations and this may
      cause some error
  (4) All equations used are the standard statistical mechanics
      equations for an ideal gas
  (5) All vibrations are strictly harmonic

freq.      28.15  E(vib)   ...       0.55
freq.      43.07  E(vib)   ...       0.53
freq.      64.72  E(vib)   ...       0.50
freq.      88.93  E(vib)   ...       0.47
freq.     130.60  E(vib)   ...       0.43
freq.     145.20  E(vib)   ...       0.41
freq.     251.93  E(vib)   ...       0.30
freq.     308.16  E(vib)   ...       0.26
freq.     315.14  E(vib)   ...       0.25
freq.     410.87  E(vib)   ...       0.19
freq.     425.02  E(vib)   ...       0.18
freq.     427.21  E(vib)   ...       0.18
freq.     432.52  E(vib)   ...       0.18
freq.     449.51  E(vib)   ...       0.17
freq.     537.89  E(vib)   ...       0.12
freq.     571.51  E(vib)   ...       0.11
freq.     625.27  E(vib)   ...       0.09
freq.     626.00  E(vib)   ...       0.09
freq.     674.73  E(vib)   ...       0.08
freq.     675.37  E(vib)   ...       0.08
freq.     694.28  E(vib)   ...       0.07
freq.     721.28  E(vib)   ...       0.07
freq.     721.92  E(vib)   ...       0.07
freq.     724.37  E(vib)   ...       0.06
freq.     759.70  E(vib)   ...       0.06
freq.     799.60  E(vib)   ...       0.05
freq.     802.95  E(vib)   ...       0.05
freq.     872.62  E(vib)   ...       0.04
freq.     876.99  E(vib)   ...       0.04
freq.     896.87  E(vib)   ...       0.03
freq.     910.43  E(vib)   ...       0.03
freq.     971.25  E(vib)   ...       0.03
freq.     974.24  E(vib)   ...       0.03
freq.     978.74  E(vib)   ...       0.03
freq.     988.25  E(vib)   ...       0.02
freq.    1025.54  E(vib)   ...       0.02
freq.    1026.94  E(vib)   ...       0.02
freq.    1028.31  E(vib)   ...       0.02
freq.    1031.62  E(vib)   ...       0.02
freq.    1057.60  E(vib)   ...       0.02
freq.    1060.48  E(vib)   ...       0.02
freq.    1061.37  E(vib)   ...       0.02
freq.    1063.34  E(vib)   ...       0.02
freq.    1094.47  E(vib)   ...       0.02
freq.    1106.47  E(vib)   ...       0.02
freq.    1111.56  E(vib)   ...       0.01
freq.    1114.80  E(vib)   ...       0.01
freq.    1146.69  E(vib)   ...       0.01
freq.    1160.85  E(vib)   ...       0.01
freq.    1163.98  E(vib)   ...       0.01
freq.    1184.47  E(vib)   ...       0.01
freq.    1189.08  E(vib)   ...       0.01
freq.    1264.08  E(vib)   ...       0.01
freq.    1290.21  E(vib)   ...       0.01
freq.    1324.20  E(vib)   ...       0.01
freq.    1334.68  E(vib)   ...       0.01
freq.    1355.47  E(vib)   ...       0.01
freq.    1356.55  E(vib)   ...       0.01
freq.    1406.02  E(vib)   ...       0.00
freq.    1428.78  E(vib)   ...       0.00
freq.    1471.53  E(vib)   ...       0.00
freq.    1510.07  E(vib)   ...       0.00
freq.    1514.72  E(vib)   ...       0.00
freq.    1545.29  E(vib)   ...       0.00
freq.    1562.31  E(vib)   ...       0.00
freq.    1647.41  E(vib)   ...       0.00
freq.    1650.09  E(vib)   ...       0.00
freq.    1700.39  E(vib)   ...       0.00
freq.    1703.69  E(vib)   ...       0.00
freq.    1705.36  E(vib)   ...       0.00
freq.    1707.35  E(vib)   ...       0.00
freq.    3221.05  E(vib)   ...       0.00
freq.    3221.12  E(vib)   ...       0.00
freq.    3226.46  E(vib)   ...       0.00
freq.    3226.72  E(vib)   ...       0.00
freq.    3231.10  E(vib)   ...       0.00
freq.    3231.21  E(vib)   ...       0.00
freq.    3237.66  E(vib)   ...       0.00
freq.    3237.87  E(vib)   ...       0.00
freq.    3243.60  E(vib)   ...       0.00
freq.    3243.62  E(vib)   ...       0.00
freq.    3299.47  E(vib)   ...       0.00
freq.    3304.63  E(vib)   ...       0.00
freq.    3322.47  E(vib)   ...       0.00

------------
INNER ENERGY
------------

The inner energy is: U= E(el) + E(ZPE) + E(vib) + E(rot) + E(trans)
    E(el)   - is the total energy from the electronic structure calculation
              = E(kin-el) + E(nuc-el) + E(el-el) + E(nuc-nuc)
    E(ZPE)  - the the zero temperature vibrational energy from the frequency calculation
    E(vib)  - the the finite temperature correction to E(ZPE) due to population
              of excited vibrational states
    E(rot)  - is the rotational thermal energy
    E(trans)- is the translational thermal energy

Summary of contributions to the inner energy U:
Electronic energy                ...   -688.11902063 Eh
Zero point energy                ...      0.24895364 Eh     156.22 kcal/mol
Thermal vibrational correction   ...      0.00985397 Eh       6.18 kcal/mol
Thermal rotational correction    ...      0.00141627 Eh       0.89 kcal/mol
Thermal translational correction ...      0.00141627 Eh       0.89 kcal/mol
-----------------------------------------------------------------------
Total thermal energy                   -687.85738047 Eh

Summary of corrections to the electronic energy:
(perhaps to be used in another calculation)
Total thermal correction                  0.01268652 Eh       7.96 kcal/mol
Non-thermal (ZPE) correction              0.24895364 Eh     156.22 kcal/mol
-----------------------------------------------------------------------
Total correction                          0.26164016 Eh     164.18 kcal/mol

--------
ENTHALPY
--------

The enthalpy is H = U + kB*T
                kB is Boltzmann's constant
Total free energy                 ...   -687.85738047 Eh
Thermal Enthalpy correction       ...      0.00094421 Eh       0.59 kcal/mol
-----------------------------------------------------------------------
Total Enthalpy                    ...   -687.85643626 Eh

Note: Only C1 symmetry has been detected, increase convergence thresholds
      if your molecule has a higher symmetry. Symmetry factor of 1.0 is
      used for the rotational entropy correction.

Note: Rotational entropy computed according to Herzberg
Infrared and Raman Spectra, Chapter V,1, Van Nostrand Reinhold, 1945
Point Group:  C1, Symmetry Number:   1
Rotational constants in cm-1:     0.052778     0.006760     0.006431

Vibrational entropy computed according to the QRRHO of S. Grimme
Chem.Eur.J. 2012 18 9955

-------
ENTROPY

                             ****ORCA TERMINATED NORMALLY****
TOTAL RUN TIME: 0 days 3 hours 0 minutes 56 seconds 687 msec
