                         Program Version 5.0.4 -  RELEASE  -
|  1> # ORCA 5.0.4 - /users/bwb16179/postgrad/2024_03/DFT_Crest_Conformers/Opt/deprot/8_deprot_aq_1.inp # write input file
|  2> # Basic Mode
|  3> #
|  4> ! Opt Freq wB97X Def2-SVP D4 SlowConv TightSCF Defgrid2 Def2/J RIJCOSX CPCM(Water)
|  5>
|  6>
|  7>
|  8> %maxcore 4500
|  9>
| 10> %geom
| 11> Maxiter 150
| 12> END
| 13>
| 14> * xyzfile 0 1 8_deprot_aq_1.xyz
| 15>
| 16>                          ****END OF INPUT****
 Total Charge           Charge          ....    0
 Multiplicity           Mult            ....    1
 Number of Electrons    NEL             ....  148
Dispersion correction           -0.009610687
FINAL SINGLE POINT ENERGY      -844.749460683078
Dispersion correction            ... Starting D4
Dispersion correction           -0.009610392
FINAL SINGLE POINT ENERGY      -844.749465125074
Dispersion correction            ... Starting D4
Dispersion correction           -0.009611268
FINAL SINGLE POINT ENERGY      -844.749462503516
Dispersion correction            ... Starting D4
FINAL SINGLE POINT ENERGY      -844.749457114889
FINAL SINGLE POINT ENERGY      -844.749460461867
FINAL SINGLE POINT ENERGY      -844.749477625962
FINAL SINGLE POINT ENERGY      -844.749502010062
FINAL SINGLE POINT ENERGY      -844.749544793513
FINAL SINGLE POINT ENERGY      -844.749574453463
FINAL SINGLE POINT ENERGY      -844.749587996054
Dispersion correction           -0.009610956
FINAL SINGLE POINT ENERGY      -844.749601620465
Dispersion correction            ... Starting D4
Dispersion correction           -0.009610277
FINAL SINGLE POINT ENERGY      -844.749604156557
Dispersion correction            ... Starting D4
                    ***********************HURRAY********************

CARTESIAN COORDINATES (ANGSTROEM)
---------------------------------
  N     -1.056876    0.069603    0.469460
  C      0.000060    0.000417   -0.384636
  N      1.057057   -0.068237    0.469425
  C      0.675429   -0.042975    1.806145
  C     -0.675097    0.045979    1.806165
  C     -2.418292    0.159550    0.031962
  C      2.418388   -0.159304    0.031889
  C     -3.005134    1.427878   -0.089145
  C     -3.114286   -1.023021   -0.258340
  C      3.004414   -1.428086   -0.088466
  C      3.115117    1.022635   -0.259186
  H      1.394259   -0.091105    2.622559
  H     -1.393846    0.095025    2.622596
  C     -4.442461   -0.912852   -0.683113
  C     -5.048688    0.335270   -0.809546
  C     -4.335290    1.495451   -0.515819
  C      4.334513   -1.496767   -0.515139
  C      5.048650   -0.337219   -0.809577
  C      4.443218    0.911365   -0.683906
  C     -2.218894    2.673709    0.224004
  C     -2.443472   -2.365210   -0.127491
  H     -5.005526   -1.821924   -0.915563
  H     -6.088802    0.404422   -1.141043
  H     -4.813119    2.474588   -0.618026
  C      2.217393   -2.673235    0.225425
  H      5.006844    1.819937   -0.916949
  C      2.445109    2.365314   -0.129223
  H      4.811720   -2.476266   -0.616790
  H      6.088708   -0.407240   -1.141069
  H     -1.988877   -2.491969    0.867675
  H     -1.632322   -2.471792   -0.865780
  H     -3.164606   -3.178642   -0.287204
  H     -1.915581    2.700008    1.282906
  H     -2.813616    3.573544    0.015197
  H     -1.295325    2.717525   -0.375004
  H      3.166722    3.178213   -0.289482
  H      1.990602    2.493007    0.865862
  H      1.634029    2.471879   -0.867593
  H      1.293994   -2.717075   -0.373845
  H      1.913704   -2.698482    1.284247
  H      2.811697   -3.573564    0.017564

 Multiplicity           Mult            ....    1
 Number of Electrons    NEL             ....  148
 Basis Dimension        Dim             ....  394

ORBITAL ENERGIES
----------------

  NO   OCC          E(Eh)            E(eV)
   0   2.0000     -14.459301      -393.4576
   1   2.0000     -14.459285      -393.4571
   2   2.0000     -10.310941      -280.5750
   3   2.0000     -10.310890      -280.5736
   4   2.0000     -10.303705      -280.3781
   5   2.0000     -10.303108      -280.3618
   6   2.0000     -10.289261      -279.9850
   7   2.0000     -10.289063      -279.9796
   8   2.0000     -10.289061      -279.9796
   9   2.0000     -10.289041      -279.9790
  10   2.0000     -10.289034      -279.9788
  11   2.0000     -10.278188      -279.6837
  12   2.0000     -10.278186      -279.6837
  13   2.0000     -10.274024      -279.5704
  14   2.0000     -10.274021      -279.5703
  15   2.0000     -10.274012      -279.5701
  16   2.0000     -10.274010      -279.5700
  17   2.0000     -10.269352      -279.4433
  18   2.0000     -10.269350      -279.4432
  19   2.0000     -10.269009      -279.4340
  20   2.0000     -10.269005      -279.4338
  21   2.0000      -1.159942       -31.5636
  22   2.0000      -1.060236       -28.8505
  23   2.0000      -0.997793       -27.1513
  24   2.0000      -0.976777       -26.5795
  25   2.0000      -0.913029       -24.8448
  26   2.0000      -0.912695       -24.8357
  27   2.0000      -0.907034       -24.6817
  28   2.0000      -0.873157       -23.7598
  29   2.0000      -0.869887       -23.6708
  30   2.0000      -0.829282       -22.5659
  31   2.0000      -0.811128       -22.0719
  32   2.0000      -0.801302       -21.8045
  33   2.0000      -0.800381       -21.7795
  34   2.0000      -0.761743       -20.7281
  35   2.0000      -0.736931       -20.0529
  36   2.0000      -0.698650       -19.0112
  37   2.0000      -0.696798       -18.9608
  38   2.0000      -0.695920       -18.9370
  39   2.0000      -0.678831       -18.4719
  40   2.0000      -0.650330       -17.6964
  41   2.0000      -0.617845       -16.8124
  42   2.0000      -0.612092       -16.6559
  43   2.0000      -0.598372       -16.2825
  44   2.0000      -0.591754       -16.1024
  45   2.0000      -0.562614       -15.3095
  46   2.0000      -0.554780       -15.0963
  47   2.0000      -0.551403       -15.0044
  48   2.0000      -0.536744       -14.6055
  49   2.0000      -0.534899       -14.5554
  50   2.0000      -0.529610       -14.4114
  51   2.0000      -0.525107       -14.2889
  52   2.0000      -0.524283       -14.2665
  53   2.0000      -0.521584       -14.1930
  54   2.0000      -0.518589       -14.1115
  55   2.0000      -0.513696       -13.9784
  56   2.0000      -0.513574       -13.9751
  57   2.0000      -0.509292       -13.8585
  58   2.0000      -0.506653       -13.7867
  59   2.0000      -0.478711       -13.0264
  60   2.0000      -0.476418       -12.9640
  61   2.0000      -0.462077       -12.5737
  62   2.0000      -0.459419       -12.5014
  63   2.0000      -0.456210       -12.4141
  64   2.0000      -0.451699       -12.2914
  65   2.0000      -0.445762       -12.1298
  66   2.0000      -0.444964       -12.1081
  67   2.0000      -0.390551       -10.6274
  68   2.0000      -0.348704        -9.4887
  69   2.0000      -0.343995        -9.3606
  70   2.0000      -0.339149        -9.2287
  71   2.0000      -0.337366        -9.1802
  72   2.0000      -0.333499        -9.0750
  73   2.0000      -0.333050        -9.0627
  74   0.0000       0.061123         1.6632
  75   0.0000       0.067162         1.8276
  76   0.0000       0.072103         1.9620
  77   0.0000       0.073478         1.9994
  78   0.0000       0.106157         2.8887

MULLIKEN ATOMIC CHARGES
-----------------------
   0 N :   -0.213922
   1 C :   -0.137114
   2 N :   -0.213942
   3 C :    0.045520
   4 C :    0.045507
   5 C :    0.046831
   6 C :    0.046819
   7 C :   -0.100547
   8 C :   -0.101035
   9 C :   -0.100538
  10 C :   -0.101033
  11 H :    0.071286
  12 H :    0.071288
  13 C :   -0.092323
  14 C :    0.005801
  15 C :   -0.093273
  16 C :   -0.093273
  17 C :    0.005797
  18 C :   -0.092313
  19 C :    0.074447
  20 C :    0.073365
  21 H :    0.021646
  22 H :    0.035087
  23 H :    0.021848
  24 C :    0.074455
  25 H :    0.021645
  26 C :    0.073355
  27 H :    0.021850
  28 H :    0.035087
  29 H :    0.045815
  30 H :    0.052979
  31 H :    0.038297
  32 H :    0.053208
  33 H :    0.038871
  34 H :    0.044678
  35 H :    0.038302
  36 H :    0.045825
  37 H :    0.052963
  38 H :    0.044687
  39 H :    0.053189
  40 H :    0.038865
Sum of atomic charges:    0.0000000

LOEWDIN ATOMIC CHARGES
----------------------
   0 N :    0.043074
   1 C :   -0.286541
   2 N :    0.043059
   3 C :   -0.022167
   4 C :   -0.022161
   5 C :   -0.000665
   6 C :   -0.000669
   7 C :   -0.024048
   8 C :   -0.023301
   9 C :   -0.024042
  10 C :   -0.023306
  11 H :    0.046126
  12 H :    0.046126
  13 C :   -0.045988
  14 C :   -0.026411
  15 C :   -0.046077
  16 C :   -0.046076
  17 C :   -0.026410
  18 C :   -0.045986
  19 C :   -0.052702
  20 C :   -0.052723
  21 H :    0.037311
  22 H :    0.040682
  23 H :    0.037371
  24 C :   -0.052702
  25 H :    0.037311
  26 C :   -0.052723
  27 H :    0.037372
  28 H :    0.040682
  29 H :    0.038961
  30 H :    0.039507
  31 H :    0.037310
  32 H :    0.041346
  33 H :    0.037646
  34 H :    0.038022
  35 H :    0.037310
  36 H :    0.038961
  37 H :    0.039513
  38 H :    0.038024
  39 H :    0.041341
  40 H :    0.037645

  Mayer bond orders larger than 0.100000
B(  0-N ,  1-C ) :   1.2249 B(  0-N ,  4-C ) :   1.0969 B(  0-N ,  5-C ) :   0.9498
B(  1-C ,  2-N ) :   1.2249 B(  2-N ,  3-C ) :   1.0969 B(  2-N ,  6-C ) :   0.9498
B(  3-C ,  4-C ) :   1.6198 B(  3-C , 11-H ) :   0.9921 B(  4-C , 12-H ) :   0.9921
B(  5-C ,  7-C ) :   1.4298 B(  5-C ,  8-C ) :   1.4316 B(  6-C ,  9-C ) :   1.4298
B(  6-C , 10-C ) :   1.4316 B(  7-C , 15-C ) :   1.3917 B(  7-C , 19-C ) :   1.0497
B(  8-C , 13-C ) :   1.3906 B(  8-C , 20-C ) :   1.0502 B(  9-C , 16-C ) :   1.3917
B(  9-C , 24-C ) :   1.0497 B( 10-C , 18-C ) :   1.3906 B( 10-C , 26-C ) :   1.0502
B( 13-C , 14-C ) :   1.3810 B( 13-C , 21-H ) :   0.9956 B( 14-C , 15-C ) :   1.3802
B( 14-C , 22-H ) :   0.9944 B( 15-C , 23-H ) :   0.9955 B( 16-C , 17-C ) :   1.3802
B( 16-C , 27-H ) :   0.9955 B( 17-C , 18-C ) :   1.3810 B( 17-C , 28-H ) :   0.9944
B( 18-C , 25-H ) :   0.9956 B( 19-C , 32-H ) :   0.9520 B( 19-C , 33-H ) :   0.9578
B( 19-C , 34-H ) :   0.9540 B( 20-C , 29-H ) :   0.9559 B( 20-C , 30-H ) :   0.9509
B( 20-C , 31-H ) :   0.9571 B( 24-C , 38-H ) :   0.9540 B( 24-C , 39-H ) :   0.9520
B( 24-C , 40-H ) :   0.9578 B( 26-C , 35-H ) :   0.9571 B( 26-C , 36-H ) :   0.9558
B( 26-C , 37-H ) :   0.9509

Dispersion correction           -0.009609747
FINAL SINGLE POINT ENERGY      -844.749605132561

DIPOLE MOMENT
-------------
                                X             Y             Z
Electronic contribution:      0.00017       0.00085       0.40687
Nuclear contribution   :     -0.00015      -0.00032       1.13153
                        -----------------------------------------
Total Dipole Moment    :      0.00002       0.00053       1.53840
                        -----------------------------------------
Magnitude (a.u.)       :      1.53840
Magnitude (Debye)      :      3.91031

Dispersion correction in the Hessian             ... Starting D4

VIBRATIONAL FREQUENCIES
-----------------------

Scaling factor for frequencies =  1.000000000  (already applied!)

   0:         0.00 cm**-1
   1:         0.00 cm**-1
   2:         0.00 cm**-1
   3:         0.00 cm**-1
   4:         0.00 cm**-1
   5:         0.00 cm**-1
   6:        26.52 cm**-1
   7:        28.57 cm**-1
   8:        58.74 cm**-1
   9:        63.03 cm**-1
  10:        88.47 cm**-1
  11:        96.12 cm**-1
  12:       135.52 cm**-1
  13:       150.80 cm**-1
  14:       152.41 cm**-1
  15:       158.65 cm**-1
  16:       160.64 cm**-1
  17:       199.20 cm**-1
  18:       209.40 cm**-1
  19:       238.87 cm**-1
  20:       239.73 cm**-1
  21:       284.44 cm**-1
  22:       308.27 cm**-1
  23:       337.81 cm**-1
  24:       358.20 cm**-1
  25:       362.10 cm**-1
  26:       399.25 cm**-1
  27:       437.18 cm**-1
  28:       485.63 cm**-1
  29:       494.85 cm**-1
  30:       538.39 cm**-1
  31:       538.83 cm**-1
  32:       543.46 cm**-1
  33:       547.19 cm**-1
  34:       579.64 cm**-1
  35:       595.00 cm**-1
  36:       604.29 cm**-1
  37:       628.29 cm**-1
  38:       685.60 cm**-1
  39:       687.92 cm**-1
  40:       753.30 cm**-1
  41:       768.65 cm**-1
  42:       779.92 cm**-1
  43:       787.41 cm**-1
  44:       796.27 cm**-1
  45:       809.54 cm**-1
  46:       810.51 cm**-1
  47:       887.29 cm**-1
  48:       942.76 cm**-1
  49:       942.84 cm**-1
  50:       944.84 cm**-1
  51:       944.88 cm**-1
  52:       964.00 cm**-1
  53:       973.45 cm**-1
  54:      1007.71 cm**-1
  55:      1008.06 cm**-1
  56:      1035.39 cm**-1
  57:      1035.68 cm**-1
  58:      1057.77 cm**-1
  59:      1057.84 cm**-1
  60:      1060.23 cm**-1
  61:      1060.86 cm**-1
  62:      1062.12 cm**-1
  63:      1062.15 cm**-1
  64:      1087.75 cm**-1
  65:      1097.62 cm**-1
  66:      1101.43 cm**-1
  67:      1129.06 cm**-1
  68:      1140.91 cm**-1
  69:      1173.81 cm**-1
  70:      1173.82 cm**-1
  71:      1267.22 cm**-1
  72:      1280.34 cm**-1
  73:      1280.48 cm**-1
  74:      1297.41 cm**-1
  75:      1302.85 cm**-1
  76:      1330.45 cm**-1
  77:      1330.46 cm**-1
  78:      1336.95 cm**-1
  79:      1380.14 cm**-1
  80:      1392.86 cm**-1
  81:      1393.33 cm**-1
  82:      1397.10 cm**-1
  83:      1400.80 cm**-1
  84:      1419.54 cm**-1
  85:      1434.48 cm**-1
  86:      1444.01 cm**-1
  87:      1445.34 cm**-1
  88:      1446.06 cm**-1
  89:      1446.61 cm**-1
  90:      1451.02 cm**-1
  91:      1451.64 cm**-1
  92:      1456.53 cm**-1
  93:      1471.31 cm**-1
  94:      1533.33 cm**-1
  95:      1533.53 cm**-1
  96:      1555.35 cm**-1
  97:      1561.73 cm**-1
  98:      1651.64 cm**-1
  99:      1698.21 cm**-1
 100:      1699.90 cm**-1
 101:      1702.84 cm**-1
 102:      1703.27 cm**-1
 103:      3065.77 cm**-1
 104:      3066.22 cm**-1
 105:      3066.54 cm**-1
 106:      3067.01 cm**-1
 107:      3154.06 cm**-1
 108:      3154.15 cm**-1
 109:      3155.58 cm**-1
 110:      3155.62 cm**-1
 111:      3185.22 cm**-1
 112:      3185.29 cm**-1
 113:      3185.92 cm**-1
 114:      3185.95 cm**-1
 115:      3206.34 cm**-1
 116:      3206.36 cm**-1
 117:      3213.46 cm**-1
 118:      3213.46 cm**-1
 119:      3227.50 cm**-1
 120:      3227.52 cm**-1
 121:      3285.38 cm**-1
 122:      3306.65 cm**-1

IR SPECTRUM
-----------

 Mode   freq       eps      Int      T**2         TX        TY        TZ
       cm**-1   L/(mol*cm) km/mol    a.u.
----------------------------------------------------------------------------
  6:     26.52   0.000004    0.02  0.000044  ( 0.000007 -0.000118 -0.006653)
  7:     28.57   0.000014    0.07  0.000155  ( 0.001043 -0.012393 -0.000086)
  8:     58.74   0.000063    0.32  0.000336  ( 0.000003  0.000130 -0.018331)
  9:     63.03   0.002877   14.54  0.014243  (-0.006426 -0.119170  0.000009)
 10:     88.47   0.000007    0.04  0.000026  ( 0.000064  0.000265 -0.005095)
 11:     96.12   0.000093    0.47  0.000302  ( 0.016845 -0.004280  0.000052)
 12:    135.52   0.000973    4.92  0.002241  ( 0.000059 -0.000013 -0.047340)
 13:    150.80   0.000116    0.59  0.000241  ( 0.000151  0.000360 -0.015520)
 14:    152.41   0.000104    0.53  0.000214  ( 0.007136 -0.012747  0.000378)
 15:    158.65   0.000244    1.24  0.000481  (-0.017251 -0.013453 -0.001505)
 16:    160.64   0.000123    0.62  0.000239  ( 0.001686  0.000853 -0.015353)
 17:    199.20   0.002073   10.48  0.003248  (-0.056873 -0.003673 -0.000015)
 18:    209.40   0.000670    3.38  0.000998  (-0.000043 -0.000037 -0.031591)
 19:    238.87   0.000004    0.02  0.000005  ( 0.000030  0.000020  0.002333)
 20:    239.73   0.000032    0.16  0.000041  (-0.003476 -0.005406  0.000001)
 21:    284.44   0.000823    4.16  0.000903  (-0.029731  0.004409 -0.000011)
 22:    308.27   0.003364   17.00  0.003405  (-0.005833 -0.058061  0.000038)
 23:    337.81   0.001898    9.59  0.001753  ( 0.000003 -0.000054 -0.041869)
 24:    358.20   0.000648    3.28  0.000565  (-0.000017  0.000009 -0.023762)
 25:    362.10   0.000439    2.22  0.000378  (-0.000000 -0.000003 -0.019445)
 26:    399.25   0.000688    3.48  0.000538  (-0.022713  0.004685  0.000005)
 27:    437.18   0.000029    0.15  0.000021  ( 0.003805 -0.002481  0.000003)
 28:    485.63   0.000134    0.68  0.000086  (-0.001006 -0.009242 -0.000004)
 29:    494.85   0.000000    0.00  0.000000  (-0.000004  0.000004  0.000250)
 30:    538.39   0.000058    0.29  0.000034  (-0.001112  0.005692 -0.000012)
 31:    538.83   0.000000    0.00  0.000000  (-0.000011  0.000101  0.000060)
 32:    543.46   0.000089    0.45  0.000051  (-0.000043 -0.007143  0.000001)
 33:    547.19   0.000004    0.02  0.000002  (-0.000002 -0.000006  0.001552)
 34:    579.64   0.000296    1.50  0.000159  (-0.000002  0.000016  0.012627)
 35:    595.00   0.000048    0.24  0.000025  ( 0.000007 -0.000012 -0.004995)
 36:    604.29   0.000033    0.17  0.000017  (-0.003732  0.001738 -0.000002)
 37:    628.29   0.002093   10.58  0.001040  (-0.032132  0.002668 -0.000001)
 38:    685.60   0.000018    0.09  0.000008  ( 0.000011  0.000082 -0.002874)
 39:    687.92   0.002524   12.76  0.001145  ( 0.001848 -0.033789  0.000021)
 40:    753.30   0.014011   70.81  0.005804  (-0.004660 -0.076043  0.000046)
 41:    768.65   0.000063    0.32  0.000026  ( 0.000012 -0.000014  0.005068)
 42:    779.92   0.001115    5.63  0.000446  (-0.021047  0.001772 -0.000002)
 43:    787.41   0.000326    1.65  0.000129  ( 0.000013 -0.000011 -0.011375)
 44:    796.27   0.001373    6.94  0.000538  (-0.023013  0.002911  0.000016)
 45:    809.54   0.018989   95.96  0.007320  (-0.000227 -0.000049 -0.085556)
 46:    810.51   0.003591   18.15  0.001383  (-0.036767 -0.005526  0.000525)
 47:    887.29   0.000000    0.00  0.000000  ( 0.000017 -0.000024 -0.000066)
 48:    942.76   0.001861    9.41  0.000616  ( 0.000142 -0.024821 -0.000101)
 49:    942.84   0.000024    0.12  0.000008  (-0.000032 -0.001109  0.002569)
 50:    944.84   0.000097    0.49  0.000032  (-0.000566 -0.004839 -0.002897)
 51:    944.88   0.000400    2.02  0.000132  ( 0.001395  0.011339 -0.001234)
 52:    964.00   0.008969   45.32  0.002903  (-0.053788  0.003177 -0.000001)
 53:    973.45   0.000840    4.25  0.000269  (-0.000002  0.000027  0.016414)
 54:   1007.71   0.002278   11.51  0.000705  (-0.026474  0.002106 -0.000056)
 55:   1008.06   0.000094    0.47  0.000029  (-0.000287  0.000042  0.005380)
 56:   1035.39   0.000020    0.10  0.000006  (-0.000129  0.002467 -0.000269)
 57:   1035.68   0.000291    1.47  0.000088  (-0.000004 -0.000081 -0.009367)
 58:   1057.77   0.000164    0.83  0.000048  ( 0.003923 -0.005351 -0.002088)
 59:   1057.84   0.001660    8.39  0.000490  ( 0.000390 -0.000471  0.022121)
 60:   1060.23   0.000237    1.20  0.000070  ( 0.008220  0.001406 -0.000305)
 61:   1060.86   0.003585   18.12  0.001055  ( 0.000080  0.000106  0.032473)
 62:   1062.12   0.000822    4.15  0.000242  (-0.001846  0.015421 -0.000539)
 63:   1062.15   0.000039    0.20  0.000011  ( 0.000214 -0.001812 -0.002849)
 64:   1087.75   0.005611   28.36  0.001610  (-0.000004  0.000039  0.040121)
 65:   1097.62   0.000012    0.06  0.000003  ( 0.001662 -0.000805 -0.000036)
 66:   1101.43   0.000096    0.49  0.000027  (-0.000021 -0.000009 -0.005226)
 67:   1129.06   0.007689   38.86  0.002125  ( 0.046054 -0.002056  0.000018)
 68:   1140.91   0.000209    1.06  0.000057  (-0.000100  0.000016  0.007558)
 69:   1173.81   0.000063    0.32  0.000017  (-0.000122 -0.003921 -0.001162)
 70:   1173.82   0.001154    5.83  0.000307  ( 0.000646  0.017504 -0.000275)
 71:   1267.22   0.009207   46.53  0.002267  (-0.047520  0.003018  0.000001)
 72:   1280.34   0.000005    0.02  0.000001  (-0.000420 -0.000770 -0.000650)
 73:   1280.48   0.000155    0.78  0.000038  ( 0.002922  0.005396 -0.000085)
 74:   1297.41   0.000014    0.07  0.000003  ( 0.000015  0.000007  0.001850)
 75:   1302.85   0.001246    6.30  0.000298  ( 0.017229 -0.001270 -0.000001)
 76:   1330.45   0.002220   11.22  0.000521  ( 0.006638  0.021830  0.000229)
 77:   1330.46   0.000575    2.90  0.000135  (-0.003379 -0.011096  0.000471)
 78:   1336.95   0.002366   11.96  0.000552  ( 0.021846 -0.008656  0.000001)
 79:   1380.14   0.001108    5.60  0.000250  (-0.000005 -0.000018 -0.015825)
 80:   1392.86   0.000056    0.28  0.000013  (-0.000092 -0.000062 -0.003538)
 81:   1393.33   0.000102    0.52  0.000023  (-0.003708 -0.003016  0.000069)
 82:   1397.10   0.000003    0.02  0.000001  ( 0.000057 -0.000009 -0.000821)
 83:   1400.80   0.001990   10.06  0.000443  (-0.020765  0.003486  0.000001)
 84:   1419.54   0.000422    2.13  0.000093  (-0.000009 -0.000012 -0.009627)
 85:   1434.48   0.007810   39.47  0.001699  (-0.041191 -0.001499  0.000010)
 86:   1444.01   0.003605   18.22  0.000779  ( 0.000019 -0.000009 -0.027913)
 87:   1445.34   0.003980   20.11  0.000859  (-0.026694  0.012083 -0.000908)
 88:   1446.06   0.005723   28.92  0.001235  (-0.001032  0.000744  0.035119)
 89:   1446.61   0.001278    6.46  0.000276  (-0.009963  0.013236 -0.001103)
 90:   1451.02   0.001909    9.65  0.000411  ( 0.000113  0.000336 -0.020261)
 91:   1451.64   0.002589   13.08  0.000556  ( 0.014293  0.018764  0.000356)
 92:   1456.53   0.000036    0.18  0.000008  (-0.000015 -0.000059 -0.002765)
 93:   1471.31   0.002287   11.56  0.000485  (-0.022002  0.000949  0.000004)
 94:   1533.33   0.000048    0.24  0.000010  (-0.000014  0.000132  0.003110)
 95:   1533.53   0.010508   53.10  0.002138  ( 0.002633  0.046168 -0.000024)
 96:   1555.35   0.058470  295.48  0.011731  ( 0.108061 -0.007357  0.000017)
 97:   1561.73   0.002341   11.83  0.000468  (-0.000075  0.000033  0.021630)
 98:   1651.64   0.000341    1.73  0.000065  ( 0.000000  0.000002  0.008033)
 99:   1698.21   0.000074    0.37  0.000014  (-0.003638 -0.000541  0.000003)
100:   1699.90   0.000020    0.10  0.000004  (-0.000002  0.000021  0.001927)
101:   1702.84   0.000035    0.18  0.000006  (-0.000003  0.000023  0.002538)
102:   1703.27   0.005153   26.04  0.000944  ( 0.000708  0.030718 -0.000012)
103:   3065.77   0.012492   63.13  0.001272  (-0.003140 -0.035520  0.000285)
104:   3066.22   0.000588    2.97  0.000060  (-0.000489  0.001419  0.007590)
105:   3066.54   0.000008    0.04  0.000001  (-0.000104 -0.000913 -0.000080)
106:   3067.01   0.003626   18.32  0.000369  (-0.018627  0.004678 -0.000240)
107:   3154.06   0.002490   12.58  0.000246  (-0.002573 -0.000002 -0.015483)
108:   3154.15   0.001779    8.99  0.000176  ( 0.002994 -0.000042 -0.012925)
109:   3155.58   0.000638    3.22  0.000063  (-0.004566 -0.003371 -0.005555)
110:   3155.62   0.001204    6.08  0.000119  ( 0.002464  0.001845 -0.010467)
111:   3185.22   0.005648   28.54  0.000553  ( 0.014807  0.018279  0.000116)
112:   3185.29   0.000451    2.28  0.000044  ( 0.000259  0.000337 -0.006632)
113:   3185.92   0.005516   27.88  0.000540  (-0.018473  0.014037  0.001423)
114:   3185.95   0.000761    3.85  0.000075  (-0.005891  0.004506 -0.004419)
115:   3206.34   0.000001    0.00  0.000000  (-0.000113  0.000210 -0.000001)
116:   3206.36   0.000000    0.00  0.000000  (-0.000002  0.000001  0.000200)
117:   3213.46   0.002682   13.55  0.000260  (-0.000714 -0.016084 -0.001110)
118:   3213.46   0.003118   15.76  0.000303  (-0.000781 -0.017352  0.001039)
119:   3227.50   0.005535   27.97  0.000535  (-0.023066  0.001727  0.000362)
120:   3227.52   0.000515    2.60  0.000050  (-0.001204  0.000080 -0.006956)
121:   3285.38   0.003165   15.99  0.000301  ( 0.017308 -0.001030 -0.000003)
122:   3306.65   0.000692    3.50  0.000065  (-0.000002  0.000003  0.008079)

--------------------------
THERMOCHEMISTRY AT 298.15K
--------------------------

Temperature         ... 298.15 K
Pressure            ... 1.00 atm
Total Mass          ... 276.38 AMU

Throughout the following assumptions are being made:
  (1) The electronic state is orbitally nondegenerate
  (2) There are no thermally accessible electronically excited states
  (3) Hindered rotations indicated by low frequency modes are not
      treated as such but are treated as vibrations and this may
      cause some error
  (4) All equations used are the standard statistical mechanics
      equations for an ideal gas
  (5) All vibrations are strictly harmonic

freq.      26.52  E(vib)   ...       0.56
freq.      28.57  E(vib)   ...       0.55
freq.      58.74  E(vib)   ...       0.51
freq.      63.03  E(vib)   ...       0.51
freq.      88.47  E(vib)   ...       0.47
freq.      96.12  E(vib)   ...       0.47
freq.     135.52  E(vib)   ...       0.42
freq.     150.80  E(vib)   ...       0.40
freq.     152.41  E(vib)   ...       0.40
freq.     158.65  E(vib)   ...       0.39
freq.     160.64  E(vib)   ...       0.39
freq.     199.20  E(vib)   ...       0.35
freq.     209.40  E(vib)   ...       0.34
freq.     238.87  E(vib)   ...       0.32
freq.     239.73  E(vib)   ...       0.31
freq.     284.44  E(vib)   ...       0.28
freq.     308.27  E(vib)   ...       0.26
freq.     337.81  E(vib)   ...       0.24
freq.     358.20  E(vib)   ...       0.22
freq.     362.10  E(vib)   ...       0.22
freq.     399.25  E(vib)   ...       0.19
freq.     437.18  E(vib)   ...       0.17
freq.     485.63  E(vib)   ...       0.15
freq.     494.85  E(vib)   ...       0.14
freq.     538.39  E(vib)   ...       0.12
freq.     538.83  E(vib)   ...       0.12
freq.     543.46  E(vib)   ...       0.12
freq.     547.19  E(vib)   ...       0.12
freq.     579.64  E(vib)   ...       0.11
freq.     595.00  E(vib)   ...       0.10
freq.     604.29  E(vib)   ...       0.10
freq.     628.29  E(vib)   ...       0.09
freq.     685.60  E(vib)   ...       0.07
freq.     687.92  E(vib)   ...       0.07
freq.     753.30  E(vib)   ...       0.06
freq.     768.65  E(vib)   ...       0.06
freq.     779.92  E(vib)   ...       0.05
freq.     787.41  E(vib)   ...       0.05
freq.     796.27  E(vib)   ...       0.05
freq.     809.54  E(vib)   ...       0.05
freq.     810.51  E(vib)   ...       0.05
freq.     887.29  E(vib)   ...       0.04
freq.     942.76  E(vib)   ...       0.03
freq.     942.84  E(vib)   ...       0.03
freq.     944.84  E(vib)   ...       0.03
freq.     944.88  E(vib)   ...       0.03
freq.     964.00  E(vib)   ...       0.03
freq.     973.45  E(vib)   ...       0.03
freq.    1007.71  E(vib)   ...       0.02
freq.    1008.06  E(vib)   ...       0.02
freq.    1035.39  E(vib)   ...       0.02
freq.    1035.68  E(vib)   ...       0.02
freq.    1057.77  E(vib)   ...       0.02
freq.    1057.84  E(vib)   ...       0.02
freq.    1060.23  E(vib)   ...       0.02
freq.    1060.86  E(vib)   ...       0.02
freq.    1062.12  E(vib)   ...       0.02
freq.    1062.15  E(vib)   ...       0.02
freq.    1087.75  E(vib)   ...       0.02
freq.    1097.62  E(vib)   ...       0.02
freq.    1101.43  E(vib)   ...       0.02
freq.    1129.06  E(vib)   ...       0.01
freq.    1140.91  E(vib)   ...       0.01
freq.    1173.81  E(vib)   ...       0.01
freq.    1173.82  E(vib)   ...       0.01
freq.    1267.22  E(vib)   ...       0.01
freq.    1280.34  E(vib)   ...       0.01
freq.    1280.48  E(vib)   ...       0.01
freq.    1297.41  E(vib)   ...       0.01
freq.    1302.85  E(vib)   ...       0.01
freq.    1330.45  E(vib)   ...       0.01
freq.    1330.46  E(vib)   ...       0.01
freq.    1336.95  E(vib)   ...       0.01
freq.    1380.14  E(vib)   ...       0.01
freq.    1392.86  E(vib)   ...       0.00
freq.    1393.33  E(vib)   ...       0.00
freq.    1397.10  E(vib)   ...       0.00
freq.    1400.80  E(vib)   ...       0.00
freq.    1419.54  E(vib)   ...       0.00
freq.    1434.48  E(vib)   ...       0.00
freq.    1444.01  E(vib)   ...       0.00
freq.    1445.34  E(vib)   ...       0.00
freq.    1446.06  E(vib)   ...       0.00
freq.    1446.61  E(vib)   ...       0.00
freq.    1451.02  E(vib)   ...       0.00
freq.    1451.64  E(vib)   ...       0.00
freq.    1456.53  E(vib)   ...       0.00
freq.    1471.31  E(vib)   ...       0.00
freq.    1533.33  E(vib)   ...       0.00
freq.    1533.53  E(vib)   ...       0.00
freq.    1555.35  E(vib)   ...       0.00
freq.    1561.73  E(vib)   ...       0.00
freq.    1651.64  E(vib)   ...       0.00
freq.    1698.21  E(vib)   ...       0.00
freq.    1699.90  E(vib)   ...       0.00
freq.    1702.84  E(vib)   ...       0.00
freq.    1703.27  E(vib)   ...       0.00
freq.    3065.77  E(vib)   ...       0.00
freq.    3066.22  E(vib)   ...       0.00
freq.    3066.54  E(vib)   ...       0.00
freq.    3067.01  E(vib)   ...       0.00
freq.    3154.06  E(vib)   ...       0.00
freq.    3154.15  E(vib)   ...       0.00
freq.    3155.58  E(vib)   ...       0.00
freq.    3155.62  E(vib)   ...       0.00
freq.    3185.22  E(vib)   ...       0.00
freq.    3185.29  E(vib)   ...       0.00
freq.    3185.92  E(vib)   ...       0.00
freq.    3185.95  E(vib)   ...       0.00
freq.    3206.34  E(vib)   ...       0.00
freq.    3206.36  E(vib)   ...       0.00
freq.    3213.46  E(vib)   ...       0.00
freq.    3213.46  E(vib)   ...       0.00
freq.    3227.50  E(vib)   ...       0.00
freq.    3227.52  E(vib)   ...       0.00
freq.    3285.38  E(vib)   ...       0.00
freq.    3306.65  E(vib)   ...       0.00

------------
INNER ENERGY
------------

The inner energy is: U= E(el) + E(ZPE) + E(vib) + E(rot) + E(trans)
    E(el)   - is the total energy from the electronic structure calculation
              = E(kin-el) + E(nuc-el) + E(el-el) + E(nuc-nuc)
    E(ZPE)  - the the zero temperature vibrational energy from the frequency calculation
    E(vib)  - the the finite temperature correction to E(ZPE) due to population
              of excited vibrational states
    E(rot)  - is the rotational thermal energy
    E(trans)- is the translational thermal energy

Summary of contributions to the inner energy U:
Electronic energy                ...   -844.74960513 Eh
Zero point energy                ...      0.34603441 Eh     217.14 kcal/mol
Thermal vibrational correction   ...      0.01641467 Eh      10.30 kcal/mol
Thermal rotational correction    ...      0.00141627 Eh       0.89 kcal/mol
Thermal translational correction ...      0.00141627 Eh       0.89 kcal/mol
-----------------------------------------------------------------------
Total thermal energy                   -844.38432351 Eh

Summary of corrections to the electronic energy:
(perhaps to be used in another calculation)
Total thermal correction                  0.01924721 Eh      12.08 kcal/mol

Rotational constants in cm-1:     0.023568     0.005961     0.005194

                             ****ORCA TERMINATED NORMALLY****
TOTAL RUN TIME: 0 days 5 hours 33 minutes 49 seconds 152 msec
