                         Program Version 5.0.4 -  RELEASE  -
|  1> # ORCA 5.0.4 - /users/bwb16179/postgrad/2024_03/DFT_Crest_Conformers/Opt/deprot/8_deprot_aq_4.inp # write input file
|  2> # Basic Mode
|  3> #
|  4> ! Opt Freq wB97X Def2-SVP D4 SlowConv TightSCF Defgrid2 Def2/J RIJCOSX CPCM(Water)
|  5>
|  6>
|  7>
|  8> %maxcore 4500
|  9>
| 10> %geom
| 11> Maxiter 150
| 12> END
| 13>
| 14> * xyzfile 0 1 8_deprot_aq_4.xyz
| 15>
| 16>                          ****END OF INPUT****
 Total Charge           Charge          ....    0
 Multiplicity           Mult            ....    1
 Number of Electrons    NEL             ....  148
Dispersion correction           -0.009612763
FINAL SINGLE POINT ENERGY      -844.749556664131
Dispersion correction            ... Starting D4
                    ***********************HURRAY********************

CARTESIAN COORDINATES (ANGSTROEM)
---------------------------------
  N     -1.061672    0.050755    0.467492
  C      0.000078    0.004201   -0.382155
  N      1.054933   -0.034375    0.476175
  C      0.667507   -0.014004    1.811292
  C     -0.684818    0.041190    1.805680
  C     -2.423032    0.103571    0.024020
  C      2.419650   -0.094816    0.043878
  C     -3.045652    1.355072   -0.093098
  C     -3.082281   -1.097224   -0.277234
  C      3.021995   -1.351974   -0.111120
  C      3.102177    1.104032   -0.208810
  H      1.384058   -0.040878    2.630662
  H     -1.407829    0.074706    2.619123
  C     -4.410617   -1.022986   -0.709264
  C     -5.052069    0.207702   -0.832217
  C     -4.374633    1.386452   -0.527403
  C      4.354982   -1.390999   -0.532488
  C      5.055768   -0.214197   -0.788176
  C      4.433847    1.022397   -0.628951
  C     -2.296646    2.621108    0.230236
  C     -2.373494   -2.420139   -0.150895
  H     -4.945664   -1.946829   -0.949576
  H     -6.091799    0.248609   -1.169563
  H     -4.879732    2.352031   -0.627322
  C      2.247953   -2.615133    0.159575
  H      4.986611    1.944723   -0.832007
  C      2.412566    2.432985   -0.045240
  H      4.845482   -2.360915   -0.659631
  H      6.098550   -0.261149   -1.115162
  H     -3.071454   -3.253162   -0.312596
  H     -1.914537   -2.537052    0.843497
  H     -1.560058   -2.501911   -0.889796
  H     -2.007900    2.655619    1.292969
  H     -2.911987    3.505012    0.013255
  H     -1.366841    2.688965   -0.356629
  H      1.582483    2.535006   -0.762752
  H      3.116302    3.260390   -0.210509
  H      1.979631    2.540314    0.961884
  H      1.350678   -2.670537   -0.477448
  H      1.901056   -2.656500    1.204455
  H      2.867406   -3.501809   -0.032945

 Multiplicity           Mult            ....    1
 Number of Electrons    NEL             ....  148
 Basis Dimension        Dim             ....  394

ORBITAL ENERGIES
----------------

  NO   OCC          E(Eh)            E(eV)
   0   2.0000     -14.459249      -393.4562
   1   2.0000     -14.459230      -393.4557
   2   2.0000     -10.310902      -280.5739
   3   2.0000     -10.310826      -280.5718
   4   2.0000     -10.303674      -280.3772
   5   2.0000     -10.303078      -280.3610
   6   2.0000     -10.289204      -279.9835
   7   2.0000     -10.289059      -279.9795
   8   2.0000     -10.289035      -279.9789
   9   2.0000     -10.289030      -279.9787
  10   2.0000     -10.289017      -279.9784
  11   2.0000     -10.278204      -279.6841
  12   2.0000     -10.278165      -279.6831
  13   2.0000     -10.274039      -279.5708
  14   2.0000     -10.274025      -279.5704
  15   2.0000     -10.274018      -279.5703
  16   2.0000     -10.274000      -279.5698
  17   2.0000     -10.269354      -279.4433
  18   2.0000     -10.269280      -279.4413
  19   2.0000     -10.269123      -279.4370
  20   2.0000     -10.268975      -279.4330
  21   2.0000      -1.159947       -31.5638
  22   2.0000      -1.060237       -28.8505
  23   2.0000      -0.997803       -27.1516
  24   2.0000      -0.976774       -26.5794
  25   2.0000      -0.913041       -24.8451
  26   2.0000      -0.912692       -24.8356
  27   2.0000      -0.907041       -24.6818
  28   2.0000      -0.873153       -23.7597
  29   2.0000      -0.869864       -23.6702
  30   2.0000      -0.829271       -22.5656
  31   2.0000      -0.811106       -22.0713
  32   2.0000      -0.801331       -21.8053
  33   2.0000      -0.800403       -21.7801
  34   2.0000      -0.761730       -20.7277
  35   2.0000      -0.736936       -20.0530
  36   2.0000      -0.698587       -19.0095
  37   2.0000      -0.696876       -18.9630
  38   2.0000      -0.695911       -18.9367
  39   2.0000      -0.678846       -18.4723
  40   2.0000      -0.650329       -17.6964
  41   2.0000      -0.617845       -16.8124
  42   2.0000      -0.612082       -16.6556
  43   2.0000      -0.598368       -16.2824
  44   2.0000      -0.591747       -16.1023
  45   2.0000      -0.562591       -15.3089
  46   2.0000      -0.554749       -15.0955
  47   2.0000      -0.551368       -15.0035
  48   2.0000      -0.536786       -14.6067
  49   2.0000      -0.534874       -14.5547
  50   2.0000      -0.529527       -14.4092
  51   2.0000      -0.525103       -14.2888
  52   2.0000      -0.524273       -14.2662
  53   2.0000      -0.521642       -14.1946
  54   2.0000      -0.518497       -14.1090
  55   2.0000      -0.513743       -13.9796
  56   2.0000      -0.513607       -13.9760
  57   2.0000      -0.509284       -13.8583
  58   2.0000      -0.506651       -13.7867
  59   2.0000      -0.478726       -13.0268
  60   2.0000      -0.476430       -12.9643
  61   2.0000      -0.462104       -12.5745
  62   2.0000      -0.459380       -12.5004
  63   2.0000      -0.456224       -12.4145
  64   2.0000      -0.451705       -12.2915
  65   2.0000      -0.445749       -12.1294
  66   2.0000      -0.444995       -12.1089
  67   2.0000      -0.390433       -10.6242
  68   2.0000      -0.348825        -9.4920
  69   2.0000      -0.343842        -9.3564
  70   2.0000      -0.339202        -9.2302
  71   2.0000      -0.337349        -9.1797
  72   2.0000      -0.333477        -9.0744
  73   2.0000      -0.333049        -9.0627
  74   0.0000       0.061073         1.6619
  75   0.0000       0.067251         1.8300
  76   0.0000       0.072056         1.9608
  77   0.0000       0.073559         2.0016
  78   0.0000       0.106110         2.8874

MULLIKEN ATOMIC CHARGES
-----------------------
   0 N :   -0.213820
   1 C :   -0.137221
   2 N :   -0.213690
   3 C :    0.045689
   4 C :    0.045285
   5 C :    0.046724
   6 C :    0.046120
   7 C :   -0.100686
   8 C :   -0.101031
   9 C :   -0.100108
  10 C :   -0.100525
  11 H :    0.071113
  12 H :    0.071306
  13 C :   -0.092461
  14 C :    0.005850
  15 C :   -0.093221
  16 C :   -0.093287
  17 C :    0.006079
  18 C :   -0.092488
  19 C :    0.074509
  20 C :    0.073895
  21 H :    0.021653
  22 H :    0.035057
  23 H :    0.021771
  24 C :    0.074293
  25 H :    0.021670
  26 C :    0.072505
  27 H :    0.021802
  28 H :    0.035070
  29 H :    0.038260
  30 H :    0.045450
  31 H :    0.053045
  32 H :    0.053466
  33 H :    0.038986
  34 H :    0.044537
  35 H :    0.052269
  36 H :    0.038263
  37 H :    0.047296
  38 H :    0.046354
  39 H :    0.051639
  40 H :    0.038582
Sum of atomic charges:   -0.0000000

LOEWDIN ATOMIC CHARGES
----------------------
   0 N :    0.043101
   1 C :   -0.286550
   2 N :    0.043209
   3 C :   -0.022289
   4 C :   -0.022164
   5 C :   -0.000645
   6 C :   -0.000687
   7 C :   -0.024149
   8 C :   -0.023295
   9 C :   -0.023803
  10 C :   -0.023466
  11 H :    0.046089
  12 H :    0.046108
  13 C :   -0.045968
  14 C :   -0.026476
  15 C :   -0.045986
  16 C :   -0.046110
  17 C :   -0.026349
  18 C :   -0.046026
  19 C :   -0.052708
  20 C :   -0.052703
  21 H :    0.037298
  22 H :    0.040676
  23 H :    0.037356
  24 C :   -0.052697
  25 H :    0.037303
  26 C :   -0.052746
  27 H :    0.037349
  28 H :    0.040694
  29 H :    0.037274
  30 H :    0.038890
  31 H :    0.039523
  32 H :    0.041450
  33 H :    0.037692
  34 H :    0.037931
  35 H :    0.039370
  36 H :    0.037364
  37 H :    0.039406
  38 H :    0.038424
  39 H :    0.040789
  40 H :    0.037520

  Mayer bond orders larger than 0.100000
B(  0-N ,  1-C ) :   1.2248 B(  0-N ,  4-C ) :   1.0970 B(  0-N ,  5-C ) :   0.9497
B(  1-C ,  2-N ) :   1.2254 B(  2-N ,  3-C ) :   1.0971 B(  2-N ,  6-C ) :   0.9505
B(  3-C ,  4-C ) :   1.6195 B(  3-C , 11-H ) :   0.9921 B(  4-C , 12-H ) :   0.9921
B(  5-C ,  7-C ) :   1.4298 B(  5-C ,  8-C ) :   1.4315 B(  6-C ,  9-C ) :   1.4301
B(  6-C , 10-C ) :   1.4315 B(  7-C , 15-C ) :   1.3919 B(  7-C , 19-C ) :   1.0498
B(  8-C , 13-C ) :   1.3906 B(  8-C , 20-C ) :   1.0505 B(  9-C , 16-C ) :   1.3917
B(  9-C , 24-C ) :   1.0495 B( 10-C , 18-C ) :   1.3909 B( 10-C , 26-C ) :   1.0495
B( 13-C , 14-C ) :   1.3809 B( 13-C , 21-H ) :   0.9955 B( 14-C , 15-C ) :   1.3801
B( 14-C , 22-H ) :   0.9944 B( 15-C , 23-H ) :   0.9955 B( 16-C , 17-C ) :   1.3802
B( 16-C , 27-H ) :   0.9955 B( 17-C , 18-C ) :   1.3809 B( 17-C , 28-H ) :   0.9943
B( 18-C , 25-H ) :   0.9955 B( 19-C , 32-H ) :   0.9518 B( 19-C , 33-H ) :   0.9578
B( 19-C , 34-H ) :   0.9543 B( 20-C , 29-H ) :   0.9570 B( 20-C , 30-H ) :   0.9559
B( 20-C , 31-H ) :   0.9506 B( 24-C , 38-H ) :   0.9532 B( 24-C , 39-H ) :   0.9528
B( 24-C , 40-H ) :   0.9577 B( 26-C , 35-H ) :   0.9517 B( 26-C , 36-H ) :   0.9573
B( 26-C , 37-H ) :   0.9553

Dispersion correction           -0.009612225
FINAL SINGLE POINT ENERGY      -844.749557723320

DIPOLE MOMENT
-------------
                                X             Y             Z
Electronic contribution:      0.00460       0.00422       0.42098
Nuclear contribution   :     -0.01143       0.00271       1.11396
                        -----------------------------------------
Total Dipole Moment    :     -0.00684       0.00693       1.53494
                        -----------------------------------------
Magnitude (a.u.)       :      1.53497
Magnitude (Debye)      :      3.90158

Dispersion correction in the Hessian             ... Starting D4

VIBRATIONAL FREQUENCIES
-----------------------

Scaling factor for frequencies =  1.000000000  (already applied!)

   0:         0.00 cm**-1
   1:         0.00 cm**-1
   2:         0.00 cm**-1
   3:         0.00 cm**-1
   4:         0.00 cm**-1
   5:         0.00 cm**-1
   6:        17.78 cm**-1
   7:        20.19 cm**-1
   8:        53.58 cm**-1
   9:        58.41 cm**-1
  10:        85.20 cm**-1
  11:        94.99 cm**-1
  12:       126.05 cm**-1
  13:       128.05 cm**-1
  14:       134.22 cm**-1
  15:       138.05 cm**-1
  16:       150.02 cm**-1
  17:       196.67 cm**-1
  18:       209.34 cm**-1
  19:       236.24 cm**-1
  20:       237.17 cm**-1
  21:       283.03 cm**-1
  22:       306.66 cm**-1
  23:       336.54 cm**-1
  24:       357.95 cm**-1
  25:       360.81 cm**-1
  26:       399.06 cm**-1
  27:       437.08 cm**-1
  28:       484.74 cm**-1
  29:       494.02 cm**-1
  30:       537.05 cm**-1
  31:       537.54 cm**-1
  32:       543.27 cm**-1
  33:       547.00 cm**-1
  34:       579.47 cm**-1
  35:       594.89 cm**-1
  36:       604.01 cm**-1
  37:       628.18 cm**-1
  38:       685.09 cm**-1
  39:       687.26 cm**-1
  40:       751.44 cm**-1
  41:       768.47 cm**-1
  42:       779.67 cm**-1
  43:       786.79 cm**-1
  44:       795.73 cm**-1
  45:       808.69 cm**-1
  46:       810.35 cm**-1
  47:       885.72 cm**-1
  48:       941.18 cm**-1
  49:       942.00 cm**-1
  50:       943.45 cm**-1
  51:       943.54 cm**-1
  52:       963.91 cm**-1
  53:       973.11 cm**-1
  54:      1006.16 cm**-1
  55:      1006.70 cm**-1
  56:      1035.23 cm**-1
  57:      1035.85 cm**-1
  58:      1055.65 cm**-1
  59:      1056.78 cm**-1
  60:      1058.57 cm**-1
  61:      1059.79 cm**-1
  62:      1061.40 cm**-1
  63:      1061.90 cm**-1
  64:      1087.34 cm**-1
  65:      1097.15 cm**-1
  66:      1100.83 cm**-1
  67:      1127.29 cm**-1
  68:      1139.42 cm**-1
  69:      1173.49 cm**-1
  70:      1173.61 cm**-1
  71:      1267.01 cm**-1
  72:      1279.03 cm**-1
  73:      1279.23 cm**-1
  74:      1296.89 cm**-1
  75:      1302.19 cm**-1
  76:      1330.38 cm**-1
  77:      1330.57 cm**-1
  78:      1337.01 cm**-1
  79:      1380.04 cm**-1
  80:      1391.68 cm**-1
  81:      1392.08 cm**-1
  82:      1396.14 cm**-1
  83:      1399.71 cm**-1
  84:      1418.92 cm**-1
  85:      1432.95 cm**-1
  86:      1441.45 cm**-1
  87:      1442.63 cm**-1
  88:      1444.48 cm**-1
  89:      1445.16 cm**-1
  90:      1450.25 cm**-1
  91:      1450.76 cm**-1
  92:      1455.91 cm**-1
  93:      1471.01 cm**-1
  94:      1533.39 cm**-1
  95:      1533.59 cm**-1
  96:      1555.17 cm**-1
  97:      1561.58 cm**-1
  98:      1651.64 cm**-1
  99:      1698.16 cm**-1
 100:      1699.86 cm**-1
 101:      1703.03 cm**-1
 102:      1703.48 cm**-1
 103:      3065.63 cm**-1
 104:      3066.17 cm**-1
 105:      3066.57 cm**-1
 106:      3067.09 cm**-1
 107:      3153.71 cm**-1
 108:      3154.47 cm**-1
 109:      3155.42 cm**-1
 110:      3155.50 cm**-1
 111:      3184.94 cm**-1
 112:      3185.23 cm**-1
 113:      3185.72 cm**-1
 114:      3185.96 cm**-1
 115:      3206.33 cm**-1
 116:      3206.36 cm**-1
 117:      3213.39 cm**-1
 118:      3213.44 cm**-1
 119:      3227.55 cm**-1
 120:      3227.58 cm**-1
 121:      3285.37 cm**-1
 122:      3306.64 cm**-1

IR SPECTRUM
-----------

 Mode   freq       eps      Int      T**2         TX        TY        TZ
       cm**-1   L/(mol*cm) km/mol    a.u.
----------------------------------------------------------------------------
  6:     17.78   0.000004    0.02  0.000077  ( 0.001035  0.004550 -0.007403)
  7:     20.19   0.000001    0.00  0.000009  ( 0.000262 -0.003060 -0.000186)
  8:     53.58   0.002669   13.49  0.015543  ( 0.002541  0.124644 -0.000477)
  9:     58.41   0.000118    0.60  0.000632  (-0.000125 -0.018411 -0.017108)
 10:     85.20   0.000021    0.10  0.000076  ( 0.001052  0.005360 -0.006780)
 11:     94.99   0.000078    0.39  0.000256  (-0.015802  0.002460 -0.000143)
 12:    126.05   0.000148    0.75  0.000367  ( 0.001938 -0.015943  0.010443)
 13:    128.05   0.000159    0.80  0.000387  (-0.001373 -0.006509  0.018507)
 14:    134.22   0.000863    4.36  0.002006  (-0.002859 -0.005760  0.044330)
 15:    138.05   0.000394    1.99  0.000890  (-0.006968 -0.021178 -0.019830)
 16:    150.02   0.000129    0.65  0.000269  ( 0.014027  0.008415 -0.001258)
 17:    196.67   0.002142   10.82  0.003399  ( 0.058218  0.003044  0.000033)
 18:    209.34   0.000676    3.42  0.001008  ( 0.000269  0.000598 -0.031740)
 19:    236.24   0.000004    0.02  0.000005  ( 0.000963  0.000582  0.001901)
 20:    237.17   0.000033    0.17  0.000044  ( 0.002283  0.006168 -0.000758)
 21:    283.03   0.000827    4.18  0.000912  (-0.029998  0.003399 -0.000327)
 22:    306.66   0.003366   17.01  0.003425  ( 0.004047  0.058381  0.000240)
 23:    336.54   0.001850    9.35  0.001716  ( 0.000041  0.000563 -0.041417)
 24:    357.95   0.000656    3.31  0.000572  (-0.000166  0.000844 -0.023891)
 25:    360.81   0.000472    2.38  0.000408  ( 0.000818  0.000029 -0.020186)
 26:    399.06   0.000688    3.48  0.000538  (-0.022947  0.003434 -0.000036)
 27:    437.08   0.000029    0.15  0.000021  ( 0.004128 -0.001985 -0.000141)
 28:    484.74   0.000136    0.69  0.000087  (-0.000928 -0.009306  0.000135)
 29:    494.02   0.000001    0.00  0.000001  (-0.000617  0.000005  0.000491)
 30:    537.05   0.000046    0.23  0.000027  (-0.001110  0.005016  0.000340)
 31:    537.54   0.000007    0.03  0.000004  (-0.000110  0.001954  0.000357)
 32:    543.27   0.000098    0.50  0.000057  ( 0.000076 -0.007518 -0.000102)
 33:    547.00   0.000003    0.02  0.000002  ( 0.000351  0.000146  0.001263)
 34:    579.47   0.000320    1.62  0.000173  ( 0.000035 -0.000029  0.013135)
 35:    594.89   0.000048    0.24  0.000025  ( 0.000153 -0.000081 -0.005011)
 36:    604.01   0.000031    0.16  0.000016  (-0.003786  0.001325 -0.000033)
 37:    628.18   0.002084   10.53  0.001035  (-0.032130  0.001728 -0.000041)
 38:    685.09   0.000013    0.07  0.000006  (-0.000038  0.000120 -0.002442)
 39:    687.26   0.002672   13.50  0.001213  ( 0.001979 -0.034770 -0.000462)
 40:    751.44   0.013842   69.95  0.005748  (-0.002867 -0.075760  0.000769)
 41:    768.47   0.000058    0.29  0.000024  ( 0.000204  0.000006  0.004851)
 42:    779.67   0.001085    5.48  0.000434  (-0.020812  0.000991  0.000090)
 43:    786.79   0.000364    1.84  0.000144  ( 0.000847 -0.000445 -0.011976)
 44:    795.73   0.001425    7.20  0.000559  (-0.023527  0.002265  0.000377)
 45:    808.69   0.015656   79.12  0.006041  ( 0.017090  0.004093 -0.075714)
 46:    810.35   0.006887   34.81  0.002652  (-0.032468 -0.003509 -0.039822)
 47:    885.72   0.000000    0.00  0.000000  ( 0.000228  0.000071 -0.000147)
 48:    941.18   0.000476    2.41  0.000158  (-0.000854  0.012539  0.000155)
 49:    942.00   0.000927    4.69  0.000307  ( 0.000098 -0.017461  0.001512)
 50:    943.45   0.000161    0.82  0.000053  ( 0.000958  0.007145 -0.001186)
 51:    943.54   0.000795    4.02  0.000263  (-0.000123  0.015926  0.003072)
 52:    963.91   0.009072   45.85  0.002937  (-0.054166  0.001792  0.000025)
 53:    973.11   0.000832    4.20  0.000267  ( 0.000027  0.000124  0.016334)
 54:   1006.16   0.001937    9.79  0.000601  (-0.024384  0.001169  0.002210)
 55:   1006.70   0.000371    1.87  0.000115  ( 0.009775 -0.000399  0.004391)
 56:   1035.23   0.000099    0.50  0.000030  (-0.000007  0.002110  0.005035)
 57:   1035.85   0.000312    1.58  0.000094  (-0.000766  0.000298 -0.009666)
 58:   1055.65   0.000890    4.50  0.000263  (-0.002445  0.005072  0.015216)
 59:   1056.78   0.000371    1.88  0.000110  ( 0.002436 -0.002947  0.009746)
 60:   1058.57   0.001233    6.23  0.000363  ( 0.007407  0.000370  0.017560)
 61:   1059.79   0.002974   15.03  0.000876  (-0.003786 -0.000228  0.029348)
 62:   1061.40   0.000455    2.30  0.000134  (-0.000451  0.011558 -0.000281)
 63:   1061.90   0.000352    1.78  0.000104  ( 0.001890 -0.009994 -0.000237)
 64:   1087.34   0.005677   28.69  0.001629  (-0.000077  0.000095  0.040364)
 65:   1097.15   0.000024    0.12  0.000007  ( 0.002533 -0.000619 -0.000059)
 66:   1100.83   0.000087    0.44  0.000025  (-0.000037 -0.000091 -0.004952)
 67:   1127.29   0.007570   38.25  0.002095  ( 0.045759 -0.001101  0.000606)
 68:   1139.42   0.000208    1.05  0.000057  (-0.000641 -0.000043  0.007519)
 69:   1173.49   0.000570    2.88  0.000151  ( 0.000096 -0.012294 -0.000593)
 70:   1173.61   0.000620    3.13  0.000165  (-0.000330  0.012828 -0.000245)
 71:   1267.01   0.009270   46.84  0.002283  (-0.047747  0.001832 -0.000040)
 72:   1279.03   0.000049    0.25  0.000012  (-0.001869 -0.002790 -0.000836)
 73:   1279.23   0.000148    0.75  0.000036  ( 0.001821  0.005721 -0.000363)
 74:   1296.89   0.000016    0.08  0.000004  (-0.000025  0.000048  0.001941)
 75:   1302.19   0.001292    6.53  0.000310  ( 0.017583 -0.000711  0.000159)
 76:   1330.38   0.000945    4.78  0.000222  ( 0.004466  0.014198  0.000474)
 77:   1330.57   0.001919    9.70  0.000450  (-0.003897 -0.020850  0.000208)
 78:   1337.01   0.002239   11.31  0.000523  (-0.021802  0.006869  0.000025)
 79:   1380.04   0.001102    5.57  0.000249  ( 0.000260 -0.001192 -0.015740)
 80:   1391.68   0.000053    0.27  0.000012  (-0.001844 -0.000044 -0.002919)
 81:   1392.08   0.000092    0.46  0.000021  ( 0.003262  0.003152 -0.000171)
 82:   1396.14   0.000019    0.10  0.000004  (-0.001683 -0.000779 -0.000933)
 83:   1399.71   0.001991   10.06  0.000444  (-0.020867  0.002845  0.000681)
 84:   1418.92   0.000591    2.99  0.000130  (-0.000280 -0.000238 -0.011395)
 85:   1432.95   0.006717   33.94  0.001463  (-0.038056 -0.003406  0.001705)
 86:   1441.45   0.000646    3.26  0.000140  (-0.000112 -0.004235  0.011041)
 87:   1442.63   0.006420   32.44  0.001389  (-0.005048 -0.005427 -0.036521)
 88:   1444.48   0.006092   30.79  0.001316  ( 0.033603 -0.013655 -0.000760)
 89:   1445.16   0.003481   17.59  0.000752  (-0.002287 -0.005032  0.026853)
 90:   1450.25   0.000978    4.94  0.000210  ( 0.001058  0.001452 -0.014392)
 91:   1450.76   0.002352   11.88  0.000506  (-0.010574 -0.019851 -0.000042)
 92:   1455.91   0.000100    0.50  0.000021  (-0.000285 -0.000229 -0.004607)
 93:   1471.01   0.002239   11.31  0.000475  (-0.021790  0.000083  0.000304)
 94:   1533.39   0.000056    0.28  0.000011  ( 0.000096 -0.002255  0.002503)
 95:   1533.59   0.010556   53.35  0.002148  ( 0.001143  0.046322  0.000944)
 96:   1555.17   0.058283  294.54  0.011695  ( 0.108046 -0.004525  0.000905)
 97:   1561.58   0.002343   11.84  0.000468  (-0.001852  0.000053  0.021559)
 98:   1651.64   0.000350    1.77  0.000066  ( 0.000079 -0.000292  0.008124)
 99:   1698.16   0.000080    0.40  0.000015  (-0.003802 -0.000454  0.000102)
100:   1699.86   0.000021    0.11  0.000004  (-0.000023  0.000392  0.001946)
101:   1703.03   0.000025    0.13  0.000005  (-0.000289 -0.000041  0.002114)
102:   1703.48   0.005151   26.03  0.000944  ( 0.000189  0.030714  0.000567)
103:   3065.63   0.010489   53.01  0.001068  (-0.003784 -0.032412  0.001698)
104:   3066.17   0.002135   10.79  0.000217  (-0.004971  0.012062  0.006866)
105:   3066.57   0.000967    4.89  0.000098  ( 0.002729 -0.009537  0.000123)
106:   3067.09   0.003125   15.79  0.000318  (-0.017588  0.001746 -0.002361)
107:   3153.71   0.002070   10.46  0.000205  (-0.002748  0.000745 -0.014027)
108:   3154.47   0.002607   13.17  0.000258  ( 0.001535 -0.000261 -0.015982)
109:   3155.42   0.000365    1.84  0.000036  (-0.004817 -0.002712 -0.002352)
110:   3155.50   0.001068    5.40  0.000106  ( 0.002560  0.002199 -0.009708)
111:   3184.94   0.003613   18.26  0.000354  ( 0.012083  0.013796  0.004205)
112:   3185.23   0.002502   12.64  0.000245  (-0.008065 -0.012505  0.004869)
113:   3185.72   0.003433   17.35  0.000336  (-0.014406  0.010732  0.003685)
114:   3185.96   0.002821   14.25  0.000276  (-0.013277  0.009471 -0.003211)
115:   3206.33   0.000001    0.00  0.000000  (-0.000206 -0.000077  0.000039)
116:   3206.36   0.000001    0.01  0.000000  ( 0.000025 -0.000266  0.000160)
117:   3213.39   0.002897   14.64  0.000281  (-0.000345 -0.016726 -0.001204)
118:   3213.44   0.002904   14.67  0.000282  (-0.000501 -0.016774  0.000603)
119:   3227.55   0.004655   23.52  0.000450  (-0.021000  0.001035  0.002831)
120:   3227.58   0.001386    7.01  0.000134  (-0.009649  0.000486 -0.006380)
121:   3285.37   0.003142   15.88  0.000298  ( 0.017265 -0.000598  0.000071)
122:   3306.64   0.000681    3.44  0.000064  ( 0.000020 -0.000018  0.008015)

--------------------------
THERMOCHEMISTRY AT 298.15K
--------------------------

Temperature         ... 298.15 K
Pressure            ... 1.00 atm
Total Mass          ... 276.38 AMU

Throughout the following assumptions are being made:
  (1) The electronic state is orbitally nondegenerate
  (2) There are no thermally accessible electronically excited states
  (3) Hindered rotations indicated by low frequency modes are not
      treated as such but are treated as vibrations and this may
      cause some error
  (4) All equations used are the standard statistical mechanics
      equations for an ideal gas
  (5) All vibrations are strictly harmonic

freq.      17.78  E(vib)   ...       0.57
freq.      20.19  E(vib)   ...       0.56
freq.      53.58  E(vib)   ...       0.52
freq.      58.41  E(vib)   ...       0.51
freq.      85.20  E(vib)   ...       0.48
freq.      94.99  E(vib)   ...       0.47
freq.     126.05  E(vib)   ...       0.43
freq.     128.05  E(vib)   ...       0.43
freq.     134.22  E(vib)   ...       0.42
freq.     138.05  E(vib)   ...       0.42
freq.     150.02  E(vib)   ...       0.40
freq.     196.67  E(vib)   ...       0.36
freq.     209.34  E(vib)   ...       0.34
freq.     236.24  E(vib)   ...       0.32
freq.     237.17  E(vib)   ...       0.32
freq.     283.03  E(vib)   ...       0.28
freq.     306.66  E(vib)   ...       0.26
freq.     336.54  E(vib)   ...       0.24
freq.     357.95  E(vib)   ...       0.22
freq.     360.81  E(vib)   ...       0.22
freq.     399.06  E(vib)   ...       0.19
freq.     437.08  E(vib)   ...       0.17
freq.     484.74  E(vib)   ...       0.15
freq.     494.02  E(vib)   ...       0.14
freq.     537.05  E(vib)   ...       0.12
freq.     537.54  E(vib)   ...       0.12
freq.     543.27  E(vib)   ...       0.12
freq.     547.00  E(vib)   ...       0.12
freq.     579.47  E(vib)   ...       0.11
freq.     594.89  E(vib)   ...       0.10
freq.     604.01  E(vib)   ...       0.10
freq.     628.18  E(vib)   ...       0.09
freq.     685.09  E(vib)   ...       0.07
freq.     687.26  E(vib)   ...       0.07
freq.     751.44  E(vib)   ...       0.06
freq.     768.47  E(vib)   ...       0.06
freq.     779.67  E(vib)   ...       0.05
freq.     786.79  E(vib)   ...       0.05
freq.     795.73  E(vib)   ...       0.05
freq.     808.69  E(vib)   ...       0.05
freq.     810.35  E(vib)   ...       0.05
freq.     885.72  E(vib)   ...       0.04
freq.     941.18  E(vib)   ...       0.03
freq.     942.00  E(vib)   ...       0.03
freq.     943.45  E(vib)   ...       0.03
freq.     943.54  E(vib)   ...       0.03
freq.     963.91  E(vib)   ...       0.03
freq.     973.11  E(vib)   ...       0.03
freq.    1006.16  E(vib)   ...       0.02
freq.    1006.70  E(vib)   ...       0.02
freq.    1035.23  E(vib)   ...       0.02
freq.    1035.85  E(vib)   ...       0.02
freq.    1055.65  E(vib)   ...       0.02
freq.    1056.78  E(vib)   ...       0.02
freq.    1058.57  E(vib)   ...       0.02
freq.    1059.79  E(vib)   ...       0.02
freq.    1061.40  E(vib)   ...       0.02
freq.    1061.90  E(vib)   ...       0.02
freq.    1087.34  E(vib)   ...       0.02
freq.    1097.15  E(vib)   ...       0.02
freq.    1100.83  E(vib)   ...       0.02
freq.    1127.29  E(vib)   ...       0.01
freq.    1139.42  E(vib)   ...       0.01
freq.    1173.49  E(vib)   ...       0.01
freq.    1173.61  E(vib)   ...       0.01
freq.    1267.01  E(vib)   ...       0.01
freq.    1279.03  E(vib)   ...       0.01
freq.    1279.23  E(vib)   ...       0.01
freq.    1296.89  E(vib)   ...       0.01
freq.    1302.19  E(vib)   ...       0.01
freq.    1330.38  E(vib)   ...       0.01
freq.    1330.57  E(vib)   ...       0.01
freq.    1337.01  E(vib)   ...       0.01
freq.    1380.04  E(vib)   ...       0.01
freq.    1391.68  E(vib)   ...       0.00
freq.    1392.08  E(vib)   ...       0.00
freq.    1396.14  E(vib)   ...       0.00
freq.    1399.71  E(vib)   ...       0.00
freq.    1418.92  E(vib)   ...       0.00
freq.    1432.95  E(vib)   ...       0.00
freq.    1441.45  E(vib)   ...       0.00
freq.    1442.63  E(vib)   ...       0.00
freq.    1444.48  E(vib)   ...       0.00
freq.    1445.16  E(vib)   ...       0.00
freq.    1450.25  E(vib)   ...       0.00
freq.    1450.76  E(vib)   ...       0.00
freq.    1455.91  E(vib)   ...       0.00
freq.    1471.01  E(vib)   ...       0.00
freq.    1533.39  E(vib)   ...       0.00
freq.    1533.59  E(vib)   ...       0.00
freq.    1555.17  E(vib)   ...       0.00
freq.    1561.58  E(vib)   ...       0.00
freq.    1651.64  E(vib)   ...       0.00
freq.    1698.16  E(vib)   ...       0.00
freq.    1699.86  E(vib)   ...       0.00
freq.    1703.03  E(vib)   ...       0.00
freq.    1703.48  E(vib)   ...       0.00
freq.    3065.63  E(vib)   ...       0.00
freq.    3066.17  E(vib)   ...       0.00
freq.    3066.57  E(vib)   ...       0.00
freq.    3067.09  E(vib)   ...       0.00
freq.    3153.71  E(vib)   ...       0.00
freq.    3154.47  E(vib)   ...       0.00
freq.    3155.42  E(vib)   ...       0.00
freq.    3155.50  E(vib)   ...       0.00
freq.    3184.94  E(vib)   ...       0.00
freq.    3185.23  E(vib)   ...       0.00
freq.    3185.72  E(vib)   ...       0.00
freq.    3185.96  E(vib)   ...       0.00
freq.    3206.33  E(vib)   ...       0.00
freq.    3206.36  E(vib)   ...       0.00
freq.    3213.39  E(vib)   ...       0.00
freq.    3213.44  E(vib)   ...       0.00
freq.    3227.55  E(vib)   ...       0.00
freq.    3227.58  E(vib)   ...       0.00
freq.    3285.37  E(vib)   ...       0.00
freq.    3306.64  E(vib)   ...       0.00

------------
INNER ENERGY
------------

The inner energy is: U= E(el) + E(ZPE) + E(vib) + E(rot) + E(trans)
    E(el)   - is the total energy from the electronic structure calculation
              = E(kin-el) + E(nuc-el) + E(el-el) + E(nuc-nuc)
    E(ZPE)  - the the zero temperature vibrational energy from the frequency calculation
    E(vib)  - the the finite temperature correction to E(ZPE) due to population
              of excited vibrational states
    E(rot)  - is the rotational thermal energy
    E(trans)- is the translational thermal energy

Summary of contributions to the inner energy U:
Electronic energy                ...   -844.74955772 Eh
Zero point energy                ...      0.34561926 Eh     216.88 kcal/mol
Thermal vibrational correction   ...      0.01665258 Eh      10.45 kcal/mol
Thermal rotational correction    ...      0.00141627 Eh       0.89 kcal/mol
Thermal translational correction ...      0.00141627 Eh       0.89 kcal/mol
-----------------------------------------------------------------------
Total thermal energy                   -844.38445334 Eh

Summary of corrections to the electronic energy:
(perhaps to be used in another calculation)
Total thermal correction                  0.01948513 Eh      12.23 kcal/mol

Rotational constants in cm-1:     0.023558     0.005966     0.005195

                             ****ORCA TERMINATED NORMALLY****
TOTAL RUN TIME: 0 days 2 hours 3 minutes 24 seconds 46 msec
