                         Program Version 5.0.4 -  RELEASE  -
|  1> # ORCA 5.0.4 - /users/bwb16179/postgrad/2024_03/DFT_Crest_Conformers/Opt/deprot/8_deprot_aq_2.inp # write input file
|  2> # Basic Mode
|  3> #
|  4> ! Opt Freq wB97X Def2-SVP D4 SlowConv TightSCF Defgrid2 Def2/J RIJCOSX CPCM(Water)
|  5>
|  6>
|  7>
|  8> %maxcore 4500
|  9>
| 10> %geom
| 11> Maxiter 150
| 12> END
| 13>
| 14> * xyzfile 0 1 8_deprot_aq_2.xyz
| 15>
| 16>                          ****END OF INPUT****
 Total Charge           Charge          ....    0
 Multiplicity           Mult            ....    1
 Number of Electrons    NEL             ....  148
Dispersion correction           -0.009609466
FINAL SINGLE POINT ENERGY      -844.749563411366
Dispersion correction            ... Starting D4
                    ***********************HURRAY********************

CARTESIAN COORDINATES (ANGSTROEM)
---------------------------------
  N     -1.058188    0.042511    0.469880
  C     -0.000037   -0.000380   -0.384435
  N      1.058531   -0.042200    0.469420
  C      0.676664   -0.026389    1.806182
  C     -0.675645    0.029017    1.806475
  C     -2.421608    0.097926    0.032750
  C      2.421748   -0.098140    0.031735
  C     -3.041641    1.350714   -0.083927
  C     -3.085834   -1.101743   -0.261904
  C      3.042047   -1.350978   -0.082931
  C      3.085523    1.101170   -0.265409
  H      1.396599   -0.056002    2.622479
  H     -1.395170    0.059984    2.623085
  C     -4.416333   -1.025155   -0.686711
  C     -5.055263    0.206965   -0.809218
  C     -4.372921    1.384598   -0.511093
  C      4.373143   -1.385300   -0.510638
  C      5.055039   -0.208034   -0.811216
  C      4.415850    1.024150   -0.690671
  C     -2.288669    2.615734    0.234278
  C     -2.379965   -2.426281   -0.135470
  H     -4.955246   -1.948077   -0.921844
  H     -6.096766    0.249794   -1.140799
  H     -4.876096    2.351239   -0.610470
  C      2.289544   -2.615607    0.237931
  H      4.954426    1.946771   -0.927748
  C      2.379346    2.425744   -0.141062
  H      4.876513   -2.351989   -0.608533
  H      6.096393   -0.251206   -1.143221
  H     -1.923871   -2.545308    0.859989
  H     -1.564907   -2.508328   -0.872572
  H     -3.079180   -3.257694   -0.299896
  H     -2.901571    3.500527    0.014027
  H     -1.358331    2.678785   -0.352203
  H     -2.000966    2.653074    1.297243
  H      1.564122    2.506347   -0.878143
  H      3.078310    3.257064   -0.307007
  H      1.923393    2.546300    0.854279
  H      2.003222   -2.651511    1.301322
  H      2.902226   -3.500662    0.018117
  H      1.358465   -2.679511   -0.347263

 Multiplicity           Mult            ....    1
 Number of Electrons    NEL             ....  148
 Basis Dimension        Dim             ....  394

ORBITAL ENERGIES
----------------

  NO   OCC          E(Eh)            E(eV)
   0   2.0000     -14.459280      -393.4570
   1   2.0000     -14.459274      -393.4568
   2   2.0000     -10.310937      -280.5749
   3   2.0000     -10.310886      -280.5735
   4   2.0000     -10.303667      -280.3770
   5   2.0000     -10.303070      -280.3608
   6   2.0000     -10.289237      -279.9844
   7   2.0000     -10.289055      -279.9794
   8   2.0000     -10.289051      -279.9793
   9   2.0000     -10.289040      -279.9790
  10   2.0000     -10.289031      -279.9788
  11   2.0000     -10.278185      -279.6836
  12   2.0000     -10.278184      -279.6836
  13   2.0000     -10.274026      -279.5705
  14   2.0000     -10.274024      -279.5704
  15   2.0000     -10.274013      -279.5701
  16   2.0000     -10.274013      -279.5701
  17   2.0000     -10.269345      -279.4431
  18   2.0000     -10.269343      -279.4430
  19   2.0000     -10.269001      -279.4337
  20   2.0000     -10.268997      -279.4336
  21   2.0000      -1.159926       -31.5632
  22   2.0000      -1.060223       -28.8501
  23   2.0000      -0.997790       -27.1513
  24   2.0000      -0.976769       -26.5792
  25   2.0000      -0.913031       -24.8448
  26   2.0000      -0.912699       -24.8358
  27   2.0000      -0.907014       -24.6811
  28   2.0000      -0.873140       -23.7593
  29   2.0000      -0.869861       -23.6701
  30   2.0000      -0.829286       -22.5660
  31   2.0000      -0.811124       -22.0718
  32   2.0000      -0.801301       -21.8045
  33   2.0000      -0.800375       -21.7793
  34   2.0000      -0.761727       -20.7276
  35   2.0000      -0.736916       -20.0525
  36   2.0000      -0.698689       -19.0123
  37   2.0000      -0.696808       -18.9611
  38   2.0000      -0.695869       -18.9355
  39   2.0000      -0.678822       -18.4717
  40   2.0000      -0.650313       -17.6959
  41   2.0000      -0.617840       -16.8123
  42   2.0000      -0.612086       -16.6557
  43   2.0000      -0.598352       -16.2820
  44   2.0000      -0.591733       -16.1019
  45   2.0000      -0.562586       -15.3087
  46   2.0000      -0.554781       -15.0963
  47   2.0000      -0.551413       -15.0047
  48   2.0000      -0.536717       -14.6048
  49   2.0000      -0.534865       -14.5544
  50   2.0000      -0.529617       -14.4116
  51   2.0000      -0.525085       -14.2883
  52   2.0000      -0.524265       -14.2660
  53   2.0000      -0.521567       -14.1926
  54   2.0000      -0.518590       -14.1116
  55   2.0000      -0.513694       -13.9783
  56   2.0000      -0.513562       -13.9747
  57   2.0000      -0.509306       -13.8589
  58   2.0000      -0.506635       -13.7862
  59   2.0000      -0.478732       -13.0270
  60   2.0000      -0.476399       -12.9635
  61   2.0000      -0.462064       -12.5734
  62   2.0000      -0.459425       -12.5016
  63   2.0000      -0.456201       -12.4139
  64   2.0000      -0.451706       -12.2916
  65   2.0000      -0.445739       -12.1292
  66   2.0000      -0.444962       -12.1080
  67   2.0000      -0.390593       -10.6286
  68   2.0000      -0.348649        -9.4872
  69   2.0000      -0.344034        -9.3616
  70   2.0000      -0.339127        -9.2281
  71   2.0000      -0.337376        -9.1805
  72   2.0000      -0.333494        -9.0748
  73   2.0000      -0.332994        -9.0612
  74   0.0000       0.061165         1.6644
  75   0.0000       0.067137         1.8269
  76   0.0000       0.072109         1.9622
  77   0.0000       0.073437         1.9983
  78   0.0000       0.106178         2.8893

MULLIKEN ATOMIC CHARGES
-----------------------
   0 N :   -0.213983
   1 C :   -0.136756
   2 N :   -0.213990
   3 C :    0.045449
   4 C :    0.045447
   5 C :    0.046708
   6 C :    0.046703
   7 C :   -0.100691
   8 C :   -0.101014
   9 C :   -0.100701
  10 C :   -0.101008
  11 H :    0.071231
  12 H :    0.071231
  13 C :   -0.092466
  14 C :    0.005838
  15 C :   -0.093201
  16 C :   -0.093193
  17 C :    0.005825
  18 C :   -0.092473
  19 C :    0.074821
  20 C :    0.073446
  21 H :    0.021670
  22 H :    0.035076
  23 H :    0.021787
  24 C :    0.074827
  25 H :    0.021671
  26 C :    0.073475
  27 H :    0.021789
  28 H :    0.035076
  29 H :    0.045855
  30 H :    0.053064
  31 H :    0.038232
  32 H :    0.038987
  33 H :    0.043919
  34 H :    0.053656
  35 H :    0.053069
  36 H :    0.038234
  37 H :    0.045837
  38 H :    0.053683
  39 H :    0.038994
  40 H :    0.043878
Sum of atomic charges:   -0.0000000

LOEWDIN ATOMIC CHARGES
----------------------
   0 N :    0.043136
   1 C :   -0.286518
   2 N :    0.043135
   3 C :   -0.022174
   4 C :   -0.022177
   5 C :   -0.000662
   6 C :   -0.000662
   7 C :   -0.024074
   8 C :   -0.023320
   9 C :   -0.024079
  10 C :   -0.023318
  11 H :    0.046096
  12 H :    0.046096
  13 C :   -0.045999
  14 C :   -0.026434
  15 C :   -0.045995
  16 C :   -0.045992
  17 C :   -0.026437
  18 C :   -0.046000
  19 C :   -0.052680
  20 C :   -0.052741
  21 H :    0.037300
  22 H :    0.040683
  23 H :    0.037358
  24 C :   -0.052679
  25 H :    0.037300
  26 C :   -0.052742
  27 H :    0.037359
  28 H :    0.040682
  29 H :    0.039001
  30 H :    0.039459
  31 H :    0.037281
  32 H :    0.037702
  33 H :    0.037756
  34 H :    0.041572
  35 H :    0.039459
  36 H :    0.037280
  37 H :    0.038996
  38 H :    0.041586
  39 H :    0.037704
  40 H :    0.037741

  Mayer bond orders larger than 0.100000
B(  0-N ,  1-C ) :   1.2251 B(  0-N ,  4-C ) :   1.0968 B(  0-N ,  5-C ) :   0.9496
B(  1-C ,  2-N ) :   1.2251 B(  2-N ,  3-C ) :   1.0968 B(  2-N ,  6-C ) :   0.9496
B(  3-C ,  4-C ) :   1.6200 B(  3-C , 11-H ) :   0.9921 B(  4-C , 12-H ) :   0.9921
B(  5-C ,  7-C ) :   1.4300 B(  5-C ,  8-C ) :   1.4314 B(  6-C ,  9-C ) :   1.4300
B(  6-C , 10-C ) :   1.4314 B(  7-C , 15-C ) :   1.3916 B(  7-C , 19-C ) :   1.0499
B(  8-C , 13-C ) :   1.3907 B(  8-C , 20-C ) :   1.0502 B(  9-C , 16-C ) :   1.3916
B(  9-C , 24-C ) :   1.0499 B( 10-C , 18-C ) :   1.3908 B( 10-C , 26-C ) :   1.0503
B( 13-C , 14-C ) :   1.3808 B( 13-C , 21-H ) :   0.9955 B( 14-C , 15-C ) :   1.3803
B( 14-C , 22-H ) :   0.9944 B( 15-C , 23-H ) :   0.9955 B( 16-C , 17-C ) :   1.3803
B( 16-C , 27-H ) :   0.9955 B( 17-C , 18-C ) :   1.3808 B( 17-C , 28-H ) :   0.9944
B( 18-C , 25-H ) :   0.9955 B( 19-C , 32-H ) :   0.9578 B( 19-C , 33-H ) :   0.9541
B( 19-C , 34-H ) :   0.9518 B( 20-C , 29-H ) :   0.9559 B( 20-C , 30-H ) :   0.9507
B( 20-C , 31-H ) :   0.9571 B( 24-C , 38-H ) :   0.9518 B( 24-C , 39-H ) :   0.9578
B( 24-C , 40-H ) :   0.9541 B( 26-C , 35-H ) :   0.9507 B( 26-C , 36-H ) :   0.9571
B( 26-C , 37-H ) :   0.9559

Dispersion correction           -0.009609633
FINAL SINGLE POINT ENERGY      -844.749564060138

DIPOLE MOMENT
-------------
                                X             Y             Z
Electronic contribution:      0.00016       0.00026       0.40316
Nuclear contribution   :      0.00023       0.00098       1.13817
                        -----------------------------------------
Total Dipole Moment    :      0.00039       0.00124       1.54133
                        -----------------------------------------
Magnitude (a.u.)       :      1.54133
Magnitude (Debye)      :      3.91776

Dispersion correction in the Hessian             ... Starting D4

VIBRATIONAL FREQUENCIES
-----------------------

Scaling factor for frequencies =  1.000000000  (already applied!)

   0:         0.00 cm**-1
   1:         0.00 cm**-1
   2:         0.00 cm**-1
   3:         0.00 cm**-1
   4:         0.00 cm**-1
   5:         0.00 cm**-1
   6:        19.64 cm**-1
   7:        20.22 cm**-1
   8:        56.68 cm**-1
   9:        58.09 cm**-1
  10:        86.26 cm**-1
  11:        95.23 cm**-1
  12:       129.17 cm**-1
  13:       135.00 cm**-1
  14:       136.92 cm**-1
  15:       150.70 cm**-1
  16:       152.95 cm**-1
  17:       198.04 cm**-1
  18:       209.29 cm**-1
  19:       236.67 cm**-1
  20:       237.52 cm**-1
  21:       283.76 cm**-1
  22:       308.13 cm**-1
  23:       336.75 cm**-1
  24:       358.41 cm**-1
  25:       361.22 cm**-1
  26:       399.21 cm**-1
  27:       436.97 cm**-1
  28:       484.96 cm**-1
  29:       494.16 cm**-1
  30:       537.14 cm**-1
  31:       537.53 cm**-1
  32:       543.36 cm**-1
  33:       547.07 cm**-1
  34:       579.31 cm**-1
  35:       594.77 cm**-1
  36:       603.80 cm**-1
  37:       628.15 cm**-1
  38:       685.27 cm**-1
  39:       687.44 cm**-1
  40:       751.51 cm**-1
  41:       768.45 cm**-1
  42:       779.70 cm**-1
  43:       786.79 cm**-1
  44:       795.77 cm**-1
  45:       808.61 cm**-1
  46:       809.51 cm**-1
  47:       885.76 cm**-1
  48:       941.26 cm**-1
  49:       941.34 cm**-1
  50:       943.54 cm**-1
  51:       943.56 cm**-1
  52:       963.95 cm**-1
  53:       973.20 cm**-1
  54:      1006.62 cm**-1
  55:      1007.00 cm**-1
  56:      1035.36 cm**-1
  57:      1035.65 cm**-1
  58:      1055.85 cm**-1
  59:      1055.91 cm**-1
  60:      1059.44 cm**-1
  61:      1060.10 cm**-1
  62:      1061.97 cm**-1
  63:      1062.05 cm**-1
  64:      1087.36 cm**-1
  65:      1097.15 cm**-1
  66:      1100.83 cm**-1
  67:      1127.25 cm**-1
  68:      1139.36 cm**-1
  69:      1173.59 cm**-1
  70:      1173.59 cm**-1
  71:      1266.90 cm**-1
  72:      1279.04 cm**-1
  73:      1279.18 cm**-1
  74:      1296.85 cm**-1
  75:      1302.14 cm**-1
  76:      1330.35 cm**-1
  77:      1330.39 cm**-1
  78:      1337.01 cm**-1
  79:      1380.01 cm**-1
  80:      1391.55 cm**-1
  81:      1392.07 cm**-1
  82:      1396.36 cm**-1
  83:      1399.86 cm**-1
  84:      1418.81 cm**-1
  85:      1433.17 cm**-1
  86:      1442.07 cm**-1
  87:      1444.47 cm**-1
  88:      1445.62 cm**-1
  89:      1445.74 cm**-1
  90:      1450.31 cm**-1
  91:      1450.84 cm**-1
  92:      1455.94 cm**-1
  93:      1470.94 cm**-1
  94:      1533.34 cm**-1
  95:      1533.53 cm**-1
  96:      1554.99 cm**-1
  97:      1561.39 cm**-1
  98:      1651.70 cm**-1
  99:      1698.07 cm**-1
 100:      1699.77 cm**-1
 101:      1702.97 cm**-1
 102:      1703.41 cm**-1
 103:      3065.75 cm**-1
 104:      3066.19 cm**-1
 105:      3066.58 cm**-1
 106:      3067.02 cm**-1
 107:      3154.23 cm**-1
 108:      3154.28 cm**-1
 109:      3155.55 cm**-1
 110:      3155.58 cm**-1
 111:      3185.07 cm**-1
 112:      3185.14 cm**-1
 113:      3185.78 cm**-1
 114:      3185.81 cm**-1
 115:      3206.35 cm**-1
 116:      3206.37 cm**-1
 117:      3213.41 cm**-1
 118:      3213.41 cm**-1
 119:      3227.58 cm**-1
 120:      3227.60 cm**-1
 121:      3285.48 cm**-1
 122:      3306.75 cm**-1

IR SPECTRUM
-----------

 Mode   freq       eps      Int      T**2         TX        TY        TZ
       cm**-1   L/(mol*cm) km/mol    a.u.
----------------------------------------------------------------------------
  6:     19.64   0.000002    0.01  0.000030  (-0.000288  0.003556 -0.004166)
  7:     20.22   0.000007    0.04  0.000115  (-0.000099  0.001902  0.010539)
  8:     56.68   0.002767   13.98  0.015236  (-0.002750 -0.123402 -0.000037)
  9:     58.09   0.000056    0.28  0.000300  (-0.000011  0.001225 -0.017268)
 10:     86.26   0.000011    0.05  0.000038  (-0.000057 -0.000335  0.006182)
 11:     95.23   0.000094    0.47  0.000307  ( 0.015147 -0.008800 -0.000047)
 12:    129.17   0.000262    1.33  0.000634  ( 0.000298  0.000680  0.025161)
 13:    135.00   0.000242    1.23  0.000560  (-0.003521 -0.023393  0.000899)
 14:    136.92   0.000933    4.71  0.002126  ( 0.000037  0.000248  0.046111)
 15:    150.70   0.000292    1.48  0.000605  (-0.021626 -0.011733 -0.000027)
 16:    152.95   0.000011    0.05  0.000022  ( 0.001824  0.000894 -0.004178)
 17:    198.04   0.002075   10.49  0.003270  (-0.056984 -0.004795 -0.000049)
 18:    209.29   0.000681    3.44  0.001015  ( 0.000013 -0.000052 -0.031860)
 19:    236.67   0.000005    0.03  0.000007  (-0.000039 -0.000195 -0.002675)
 20:    237.52   0.000024    0.12  0.000032  (-0.001635 -0.005382  0.000071)
 21:    283.76   0.000815    4.12  0.000896  (-0.029848  0.002319  0.000004)
 22:    308.13   0.003372   17.04  0.003415  (-0.004008 -0.058301  0.000040)
 23:    336.75   0.001844    9.32  0.001709  ( 0.000005 -0.000028 -0.041339)
 24:    358.41   0.000636    3.21  0.000554  ( 0.000006 -0.000037 -0.023529)
 25:    361.22   0.000487    2.46  0.000421  (-0.000029 -0.000003 -0.020516)
 26:    399.21   0.000689    3.48  0.000538  (-0.022837  0.004085  0.000004)
 27:    436.97   0.000031    0.15  0.000022  ( 0.004064 -0.002308  0.000014)
 28:    484.96   0.000134    0.68  0.000086  (-0.000970 -0.009232 -0.000000)
 29:    494.16   0.000000    0.00  0.000000  ( 0.000018  0.000010  0.000555)
 30:    537.14   0.000056    0.28  0.000033  (-0.001464  0.005524 -0.000038)
 31:    537.53   0.000000    0.00  0.000000  ( 0.000071 -0.000263 -0.000293)
 32:    543.36   0.000094    0.48  0.000054  ( 0.000243 -0.007344  0.000003)
 33:    547.07   0.000004    0.02  0.000002  ( 0.000009  0.000012 -0.001499)
 34:    579.31   0.000319    1.61  0.000172  ( 0.000001  0.000015  0.013107)
 35:    594.77   0.000046    0.23  0.000024  (-0.000012 -0.000006 -0.004894)
 36:    603.80   0.000031    0.15  0.000016  (-0.003704  0.001437  0.000004)
 37:    628.15   0.002078   10.50  0.001032  (-0.032082  0.001798  0.000003)
 38:    685.27   0.000021    0.11  0.000010  ( 0.000030 -0.000215  0.003113)
 39:    687.44   0.002693   13.61  0.001223  ( 0.003014 -0.034836  0.000029)
 40:    751.51   0.013837   69.93  0.005746  (-0.002996 -0.075743  0.000051)
 41:    768.45   0.000053    0.27  0.000022  (-0.000007 -0.000031  0.004645)
 42:    779.70   0.001109    5.61  0.000444  (-0.021057  0.000773 -0.000010)
 43:    786.79   0.000414    2.09  0.000164  (-0.000026  0.000007 -0.012808)
 44:    795.77   0.001456    7.36  0.000571  (-0.023723  0.002830  0.000029)
 45:    808.61   0.018831   95.16  0.007267  (-0.002083 -0.000465 -0.085222)
 46:    809.51   0.003603   18.21  0.001389  (-0.036336 -0.006700  0.004864)
 47:    885.76   0.000000    0.00  0.000000  ( 0.000018 -0.000041 -0.000276)
 48:    941.26   0.000642    3.25  0.000213  ( 0.001046 -0.014555  0.000021)
 49:    941.34   0.000226    1.14  0.000075  (-0.000612  0.008630  0.000119)
 50:    943.54   0.001429    7.22  0.000473  ( 0.000318 -0.021737  0.000400)
 51:    943.56   0.000066    0.33  0.000022  (-0.000007  0.001615  0.004369)
 52:    963.95   0.009030   45.63  0.002923  ( 0.054045 -0.001578 -0.000003)
 53:    973.20   0.000815    4.12  0.000261  ( 0.000003  0.000009  0.016162)
 54:   1006.62   0.002246   11.35  0.000696  (-0.026354  0.001323 -0.000012)
 55:   1007.00   0.000063    0.32  0.000020  ( 0.000082  0.000015  0.004428)
 56:   1035.36   0.000027    0.13  0.000008  ( 0.000268  0.002661 -0.000918)
 57:   1035.65   0.000379    1.92  0.000114  ( 0.000009 -0.000234 -0.010691)
 58:   1055.85   0.000783    3.96  0.000231  ( 0.002338 -0.005805  0.013862)
 59:   1055.91   0.001050    5.31  0.000310  (-0.001954  0.004737  0.016856)
 60:   1059.44   0.000222    1.12  0.000065  ( 0.007896  0.001616  0.000575)
 61:   1060.10   0.003577   18.08  0.001053  (-0.000151  0.000088  0.032449)
 62:   1061.97   0.000753    3.81  0.000221  (-0.002788  0.014615  0.000085)
 63:   1062.05   0.000035    0.18  0.000010  (-0.000571  0.002718 -0.001571)
 64:   1087.36   0.005657   28.59  0.001623  (-0.000001 -0.000055 -0.040292)
 65:   1097.15   0.000025    0.13  0.000007  ( 0.002607 -0.000651 -0.000051)
 66:   1100.83   0.000092    0.47  0.000026  (-0.000003 -0.000001 -0.005109)
 67:   1127.25   0.007544   38.12  0.002088  ( 0.045684 -0.001146 -0.000015)
 68:   1139.36   0.000217    1.10  0.000059  (-0.000015  0.000009  0.007708)
 69:   1173.59   0.000219    1.11  0.000058  (-0.000032  0.007602 -0.000706)
 70:   1173.59   0.000961    4.86  0.000256  (-0.000093  0.015985  0.000313)
 71:   1266.90   0.009310   47.05  0.002293  (-0.047849  0.001940  0.000001)
 72:   1279.04   0.000004    0.02  0.000001  (-0.000069 -0.000159 -0.000951)
 73:   1279.18   0.000209    1.05  0.000051  ( 0.003176  0.006386 -0.000027)
 74:   1296.85   0.000020    0.10  0.000005  (-0.000004 -0.000003  0.002182)
 75:   1302.14   0.001263    6.39  0.000303  (-0.017393  0.000541  0.000011)
 76:   1330.35   0.002765   13.97  0.000649  (-0.006993 -0.024487 -0.000022)
 77:   1330.39   0.000013    0.06  0.000003  (-0.000444 -0.001530  0.000661)
 78:   1337.01   0.002342   11.84  0.000547  ( 0.021763 -0.008545 -0.000001)
 79:   1380.01   0.001094    5.53  0.000247  (-0.000004 -0.000002 -0.015726)
 80:   1391.55   0.000051    0.26  0.000011  ( 0.000112  0.000049 -0.003366)
 81:   1392.07   0.000145    0.73  0.000032  ( 0.004945  0.002833  0.000057)
 82:   1396.36   0.000012    0.06  0.000003  (-0.000031  0.000010 -0.001644)
 83:   1399.86   0.001936    9.78  0.000432  (-0.020478  0.003489 -0.000031)
 84:   1418.81   0.000509    2.57  0.000112  (-0.000041  0.000002  0.010577)
 85:   1433.17   0.006946   35.10  0.001512  ( 0.038719  0.003639 -0.000097)
 86:   1442.07   0.003508   17.73  0.000759  ( 0.000402 -0.000104  0.027551)
 87:   1444.47   0.005841   29.52  0.001262  (-0.032674  0.013936  0.000123)
 88:   1445.62   0.006485   32.77  0.001400  (-0.000201 -0.000068  0.037414)
 89:   1445.74   0.000262    1.32  0.000057  ( 0.001326  0.007373  0.000689)
 90:   1450.31   0.001138    5.75  0.000245  (-0.000194 -0.000598  0.015635)
 91:   1450.84   0.002546   12.87  0.000548  ( 0.011782  0.020213  0.000468)
 92:   1455.94   0.000047    0.24  0.000010  ( 0.000061  0.000093  0.003183)
 93:   1470.94   0.002292   11.58  0.000486  ( 0.022052 -0.000110 -0.000009)
 94:   1533.34   0.000053    0.27  0.000011  ( 0.000009  0.000154 -0.003293)
 95:   1533.53   0.010541   53.27  0.002145  (-0.001274 -0.046297  0.000030)
 96:   1554.99   0.058414  295.20  0.011723  (-0.108172  0.004667  0.000025)
 97:   1561.39   0.002341   11.83  0.000468  (-0.000019 -0.000015 -0.021632)
 98:   1651.70   0.000343    1.73  0.000065  ( 0.000002  0.000009  0.008050)
 99:   1698.07   0.000082    0.42  0.000015  ( 0.003873  0.000304  0.000003)
100:   1699.77   0.000022    0.11  0.000004  (-0.000001  0.000030 -0.001992)
101:   1702.97   0.000039    0.20  0.000007  ( 0.000005 -0.000038 -0.002680)
102:   1703.41   0.005137   25.96  0.000941  ( 0.000045 -0.030677  0.000030)
103:   3065.75   0.012442   62.87  0.001266  ( 0.002855  0.035472  0.000197)
104:   3066.19   0.000605    3.06  0.000062  ( 0.000159 -0.001149  0.007764)
105:   3066.58   0.000002    0.01  0.000000  (-0.000202  0.000273  0.000300)
106:   3067.02   0.003691   18.65  0.000376  (-0.018568  0.005546  0.000098)
107:   3154.23   0.003134   15.84  0.000310  (-0.002043 -0.000131  0.017489)
108:   3154.28   0.001360    6.88  0.000135  (-0.003174 -0.000250 -0.011156)
109:   3155.55   0.000497    2.51  0.000049  ( 0.004983  0.003795  0.003157)
110:   3155.58   0.001099    5.55  0.000109  (-0.001514 -0.001143  0.010251)
111:   3185.07   0.005599   28.30  0.000549  (-0.014208 -0.018618 -0.000359)
112:   3185.14   0.000479    2.42  0.000047  (-0.000781 -0.001081  0.006722)
113:   3185.78   0.005504   27.81  0.000539  ( 0.018870 -0.013460  0.001379)
114:   3185.81   0.000744    3.76  0.000073  (-0.005955  0.004309  0.004336)
115:   3206.35   0.000001    0.00  0.000000  ( 0.000227  0.000060  0.000001)
116:   3206.37   0.000000    0.00  0.000000  ( 0.000003 -0.000002 -0.000150)
117:   3213.41   0.002495   12.61  0.000242  ( 0.000325  0.015513  0.001227)
118:   3213.41   0.003308   16.72  0.000321  ( 0.000371  0.017885 -0.001093)
119:   3227.58   0.005531   27.95  0.000535  ( 0.023096 -0.001142 -0.000178)
120:   3227.60   0.000506    2.56  0.000049  ( 0.000578 -0.000024  0.006974)
121:   3285.48   0.003137   15.85  0.000298  ( 0.017252 -0.000545 -0.000007)
122:   3306.75   0.000678    3.43  0.000064  (-0.000002  0.000008  0.008001)

--------------------------
THERMOCHEMISTRY AT 298.15K
--------------------------

Temperature         ... 298.15 K
Pressure            ... 1.00 atm
Total Mass          ... 276.38 AMU

Throughout the following assumptions are being made:
  (1) The electronic state is orbitally nondegenerate
  (2) There are no thermally accessible electronically excited states
  (3) Hindered rotations indicated by low frequency modes are not
      treated as such but are treated as vibrations and this may
      cause some error
  (4) All equations used are the standard statistical mechanics
      equations for an ideal gas
  (5) All vibrations are strictly harmonic

freq.      19.64  E(vib)   ...       0.56
freq.      20.22  E(vib)   ...       0.56
freq.      56.68  E(vib)   ...       0.52
freq.      58.09  E(vib)   ...       0.51
freq.      86.26  E(vib)   ...       0.48
freq.      95.23  E(vib)   ...       0.47
freq.     129.17  E(vib)   ...       0.43
freq.     135.00  E(vib)   ...       0.42
freq.     136.92  E(vib)   ...       0.42
freq.     150.70  E(vib)   ...       0.40
freq.     152.95  E(vib)   ...       0.40
freq.     198.04  E(vib)   ...       0.35
freq.     209.29  E(vib)   ...       0.34
freq.     236.67  E(vib)   ...       0.32
freq.     237.52  E(vib)   ...       0.32
freq.     283.76  E(vib)   ...       0.28
freq.     308.13  E(vib)   ...       0.26
freq.     336.75  E(vib)   ...       0.24
freq.     358.41  E(vib)   ...       0.22
freq.     361.22  E(vib)   ...       0.22
freq.     399.21  E(vib)   ...       0.19
freq.     436.97  E(vib)   ...       0.17
freq.     484.96  E(vib)   ...       0.15
freq.     494.16  E(vib)   ...       0.14
freq.     537.14  E(vib)   ...       0.12
freq.     537.53  E(vib)   ...       0.12
freq.     543.36  E(vib)   ...       0.12
freq.     547.07  E(vib)   ...       0.12
freq.     579.31  E(vib)   ...       0.11
freq.     594.77  E(vib)   ...       0.10
freq.     603.80  E(vib)   ...       0.10
freq.     628.15  E(vib)   ...       0.09
freq.     685.27  E(vib)   ...       0.07
freq.     687.44  E(vib)   ...       0.07
freq.     751.51  E(vib)   ...       0.06
freq.     768.45  E(vib)   ...       0.06
freq.     779.70  E(vib)   ...       0.05
freq.     786.79  E(vib)   ...       0.05
freq.     795.77  E(vib)   ...       0.05
freq.     808.61  E(vib)   ...       0.05
freq.     809.51  E(vib)   ...       0.05
freq.     885.76  E(vib)   ...       0.04
freq.     941.26  E(vib)   ...       0.03
freq.     941.34  E(vib)   ...       0.03
freq.     943.54  E(vib)   ...       0.03
freq.     943.56  E(vib)   ...       0.03
freq.     963.95  E(vib)   ...       0.03
freq.     973.20  E(vib)   ...       0.03
freq.    1006.62  E(vib)   ...       0.02
freq.    1007.00  E(vib)   ...       0.02
freq.    1035.36  E(vib)   ...       0.02
freq.    1035.65  E(vib)   ...       0.02
freq.    1055.85  E(vib)   ...       0.02
freq.    1055.91  E(vib)   ...       0.02
freq.    1059.44  E(vib)   ...       0.02
freq.    1060.10  E(vib)   ...       0.02
freq.    1061.97  E(vib)   ...       0.02
freq.    1062.05  E(vib)   ...       0.02
freq.    1087.36  E(vib)   ...       0.02
freq.    1097.15  E(vib)   ...       0.02
freq.    1100.83  E(vib)   ...       0.02
freq.    1127.25  E(vib)   ...       0.01
freq.    1139.36  E(vib)   ...       0.01
freq.    1173.59  E(vib)   ...       0.01
freq.    1173.59  E(vib)   ...       0.01
freq.    1266.90  E(vib)   ...       0.01
freq.    1279.04  E(vib)   ...       0.01
freq.    1279.18  E(vib)   ...       0.01
freq.    1296.85  E(vib)   ...       0.01
freq.    1302.14  E(vib)   ...       0.01
freq.    1330.35  E(vib)   ...       0.01
freq.    1330.39  E(vib)   ...       0.01
freq.    1337.01  E(vib)   ...       0.01
freq.    1380.01  E(vib)   ...       0.01
freq.    1391.55  E(vib)   ...       0.00
freq.    1392.07  E(vib)   ...       0.00
freq.    1396.36  E(vib)   ...       0.00
freq.    1399.86  E(vib)   ...       0.00
freq.    1418.81  E(vib)   ...       0.00
freq.    1433.17  E(vib)   ...       0.00
freq.    1442.07  E(vib)   ...       0.00
freq.    1444.47  E(vib)   ...       0.00
freq.    1445.62  E(vib)   ...       0.00
freq.    1445.74  E(vib)   ...       0.00
freq.    1450.31  E(vib)   ...       0.00
freq.    1450.84  E(vib)   ...       0.00
freq.    1455.94  E(vib)   ...       0.00
freq.    1470.94  E(vib)   ...       0.00
freq.    1533.34  E(vib)   ...       0.00
freq.    1533.53  E(vib)   ...       0.00
freq.    1554.99  E(vib)   ...       0.00
freq.    1561.39  E(vib)   ...       0.00
freq.    1651.70  E(vib)   ...       0.00
freq.    1698.07  E(vib)   ...       0.00
freq.    1699.77  E(vib)   ...       0.00
freq.    1702.97  E(vib)   ...       0.00
freq.    1703.41  E(vib)   ...       0.00
freq.    3065.75  E(vib)   ...       0.00
freq.    3066.19  E(vib)   ...       0.00
freq.    3066.58  E(vib)   ...       0.00
freq.    3067.02  E(vib)   ...       0.00
freq.    3154.23  E(vib)   ...       0.00
freq.    3154.28  E(vib)   ...       0.00
freq.    3155.55  E(vib)   ...       0.00
freq.    3155.58  E(vib)   ...       0.00
freq.    3185.07  E(vib)   ...       0.00
freq.    3185.14  E(vib)   ...       0.00
freq.    3185.78  E(vib)   ...       0.00
freq.    3185.81  E(vib)   ...       0.00
freq.    3206.35  E(vib)   ...       0.00
freq.    3206.37  E(vib)   ...       0.00
freq.    3213.41  E(vib)   ...       0.00
freq.    3213.41  E(vib)   ...       0.00
freq.    3227.58  E(vib)   ...       0.00
freq.    3227.60  E(vib)   ...       0.00
freq.    3285.48  E(vib)   ...       0.00
freq.    3306.75  E(vib)   ...       0.00

------------
INNER ENERGY
------------

The inner energy is: U= E(el) + E(ZPE) + E(vib) + E(rot) + E(trans)
    E(el)   - is the total energy from the electronic structure calculation
              = E(kin-el) + E(nuc-el) + E(el-el) + E(nuc-nuc)
    E(ZPE)  - the the zero temperature vibrational energy from the frequency calculation
    E(vib)  - the the finite temperature correction to E(ZPE) due to population
              of excited vibrational states
    E(rot)  - is the rotational thermal energy
    E(trans)- is the translational thermal energy

Summary of contributions to the inner energy U:
Electronic energy                ...   -844.74956406 Eh
Zero point energy                ...      0.34572215 Eh     216.94 kcal/mol
Thermal vibrational correction   ...      0.01658227 Eh      10.41 kcal/mol
Thermal rotational correction    ...      0.00141627 Eh       0.89 kcal/mol
Thermal translational correction ...      0.00141627 Eh       0.89 kcal/mol
-----------------------------------------------------------------------
Total thermal energy                   -844.38442710 Eh

Summary of corrections to the electronic energy:
(perhaps to be used in another calculation)
Total thermal correction                  0.01941481 Eh      12.18 kcal/mol

Rotational constants in cm-1:     0.023565     0.005960     0.005195

                             ****ORCA TERMINATED NORMALLY****
TOTAL RUN TIME: 0 days 2 hours 2 minutes 51 seconds 429 msec
