                         Program Version 5.0.4 -  RELEASE  -
|  1> # ORCA 5.0.4 - /users/bwb16179/postgrad/2024_03/DFT_Crest_Conformers/Opt/deprot/8_deprot_aq_5.inp # write input file
|  2> # Basic Mode
|  3> #
|  4> ! Opt Freq wB97X Def2-SVP D4 SlowConv TightSCF Defgrid2 Def2/J RIJCOSX CPCM(Water)
|  5>
|  6>
|  7>
|  8> %maxcore 4500
|  9>
| 10> %geom
| 11> Maxiter 150
| 12> END
| 13>
| 14> * xyzfile 0 1 8_deprot_aq_5.xyz
| 15>
| 16>                          ****END OF INPUT****
 Total Charge           Charge          ....    0
 Multiplicity           Mult            ....    1
 Number of Electrons    NEL             ....  148
Dispersion correction           -0.009620970
FINAL SINGLE POINT ENERGY      -844.749433767645
Dispersion correction            ... Starting D4
Dispersion correction           -0.009616830
FINAL SINGLE POINT ENERGY      -844.749472993581
Dispersion correction            ... Starting D4
Dispersion correction           -0.009612867
FINAL SINGLE POINT ENERGY      -844.749503417307
Dispersion correction            ... Starting D4
FINAL SINGLE POINT ENERGY      -844.749514192962
FINAL SINGLE POINT ENERGY      -844.749525065237
FINAL SINGLE POINT ENERGY      -844.749536574889
FINAL SINGLE POINT ENERGY      -844.749551442828
FINAL SINGLE POINT ENERGY      -844.749576061731
FINAL SINGLE POINT ENERGY      -844.749592392656
Dispersion correction           -0.009610101
FINAL SINGLE POINT ENERGY      -844.749598756286
Dispersion correction            ... Starting D4
Dispersion correction           -0.009607883
FINAL SINGLE POINT ENERGY      -844.749602910535
Dispersion correction            ... Starting D4
                    ***********************HURRAY********************

CARTESIAN COORDINATES (ANGSTROEM)
---------------------------------
  N     -1.055590    0.074423    0.473599
  C     -0.004096   -0.003425   -0.386623
  N      1.058119   -0.067081    0.461327
  C      0.684932   -0.030664    1.800221
  C     -0.665382    0.060768    1.807967
  C     -2.419451    0.163032    0.043622
  C      2.416576   -0.164417    0.016339
  C     -3.006244    1.431023   -0.080888
  C     -3.117999   -1.020471   -0.236534
  C      2.998793   -1.435413   -0.099523
  C      3.114690    1.013818   -0.286021
  H      1.408899   -0.073529    2.612380
  H     -1.378895    0.117723    2.628477
  C     -4.448415   -0.911611   -0.654640
  C     -5.054594    0.336210   -0.784351
  C     -4.338735    1.497332   -0.500542
  C      4.326217   -1.510157   -0.533387
  C      5.041672   -0.354272   -0.839018
  C      4.440108    0.896541   -0.717620
  C     -2.217917    2.678279    0.221309
  C     -2.448231   -2.362847   -0.102061
  H     -5.013314   -1.821526   -0.879207
  H     -6.096525    0.404320   -1.110317
  H     -4.816449    2.476268   -0.605235
  C      2.210835   -2.676838    0.226590
  H      5.004710    1.802181   -0.959567
  C      2.448996    2.359145   -0.161384
  H      4.800393   -2.491452   -0.631789
  H      6.079580   -0.429003   -1.176170
  H     -3.171668   -3.176035   -0.252345
  H     -1.987481   -2.484473    0.890915
  H     -1.642180   -2.475164   -0.845059
  H     -1.297140    2.718229   -0.382247
  H     -1.909862    2.710784    1.278668
  H     -2.813310    3.577065    0.009912
  H      3.173034    3.169003   -0.326109
  H      1.995490    2.493016    0.833293
  H      1.638030    2.464985   -0.900045
  H      2.802598   -3.579659    0.022369
  H      1.284663   -2.723222   -0.368193
  H      1.912075   -2.693885    1.286979

 Multiplicity           Mult            ....    1
 Number of Electrons    NEL             ....  148
 Basis Dimension        Dim             ....  394

ORBITAL ENERGIES
----------------

  NO   OCC          E(Eh)            E(eV)
   0   2.0000     -14.459324      -393.4582
   1   2.0000     -14.459309      -393.4578
   2   2.0000     -10.310961      -280.5755
   3   2.0000     -10.310908      -280.5741
   4   2.0000     -10.303709      -280.3782
   5   2.0000     -10.303112      -280.3619
   6   2.0000     -10.289284      -279.9857
   7   2.0000     -10.289067      -279.9797
   8   2.0000     -10.289065      -279.9797
   9   2.0000     -10.289042      -279.9791
  10   2.0000     -10.289035      -279.9789
  11   2.0000     -10.278182      -279.6836
  12   2.0000     -10.278181      -279.6835
  13   2.0000     -10.274019      -279.5703
  14   2.0000     -10.274014      -279.5701
  15   2.0000     -10.274003      -279.5698
  16   2.0000     -10.274003      -279.5698
  17   2.0000     -10.269358      -279.4435
  18   2.0000     -10.269349      -279.4432
  19   2.0000     -10.269012      -279.4340
  20   2.0000     -10.269001      -279.4337
  21   2.0000      -1.159938       -31.5635
  22   2.0000      -1.060242       -28.8506
  23   2.0000      -0.997791       -27.1513
  24   2.0000      -0.976780       -26.5795
  25   2.0000      -0.913026       -24.8447
  26   2.0000      -0.912693       -24.8356
  27   2.0000      -0.907037       -24.6817
  28   2.0000      -0.873158       -23.7598
  29   2.0000      -0.869889       -23.6709
  30   2.0000      -0.829298       -22.5663
  31   2.0000      -0.811149       -22.0725
  32   2.0000      -0.801274       -21.8038
  33   2.0000      -0.800355       -21.7788
  34   2.0000      -0.761748       -20.7282
  35   2.0000      -0.736933       -20.0530
  36   2.0000      -0.698660       -19.0115
  37   2.0000      -0.696807       -18.9611
  38   2.0000      -0.695913       -18.9368
  39   2.0000      -0.678831       -18.4719
  40   2.0000      -0.650333       -17.6965
  41   2.0000      -0.617844       -16.8124
  42   2.0000      -0.612084       -16.6557
  43   2.0000      -0.598371       -16.2825
  44   2.0000      -0.591756       -16.1025
  45   2.0000      -0.562624       -15.3098
  46   2.0000      -0.554783       -15.0964
  47   2.0000      -0.551411       -15.0047
  48   2.0000      -0.536750       -14.6057
  49   2.0000      -0.534911       -14.5557
  50   2.0000      -0.529624       -14.4118
  51   2.0000      -0.525122       -14.2893
  52   2.0000      -0.524296       -14.2668
  53   2.0000      -0.521580       -14.1929
  54   2.0000      -0.518609       -14.1121
  55   2.0000      -0.513669       -13.9776
  56   2.0000      -0.513554       -13.9745
  57   2.0000      -0.509277       -13.8581
  58   2.0000      -0.506644       -13.7865
  59   2.0000      -0.478691       -13.0259
  60   2.0000      -0.476401       -12.9635
  61   2.0000      -0.462075       -12.5737
  62   2.0000      -0.459426       -12.5016
  63   2.0000      -0.456213       -12.4142
  64   2.0000      -0.451688       -12.2911
  65   2.0000      -0.445759       -12.1297
  66   2.0000      -0.444968       -12.1082
  67   2.0000      -0.390568       -10.6279
  68   2.0000      -0.348712        -9.4889
  69   2.0000      -0.344011        -9.3610
  70   2.0000      -0.339127        -9.2281
  71   2.0000      -0.337359        -9.1800
  72   2.0000      -0.333513        -9.0754
  73   2.0000      -0.333064        -9.0631
  74   0.0000       0.061124         1.6633
  75   0.0000       0.067161         1.8276
  76   0.0000       0.072101         1.9620
  77   0.0000       0.073461         1.9990
  78   0.0000       0.106168         2.8890

MULLIKEN ATOMIC CHARGES
-----------------------
   0 N :   -0.213869
   1 C :   -0.137187
   2 N :   -0.213919
   3 C :    0.045609
   4 C :    0.045447
   5 C :    0.047000
   6 C :    0.046813
   7 C :   -0.100614
   8 C :   -0.101121
   9 C :   -0.100497
  10 C :   -0.101012
  11 H :    0.071284
  12 H :    0.071310
  13 C :   -0.092290
  14 C :    0.005779
  15 C :   -0.093276
  16 C :   -0.093269
  17 C :    0.005731
  18 C :   -0.092237
  19 C :    0.074382
  20 C :    0.073334
  21 H :    0.021644
  22 H :    0.035096
  23 H :    0.021857
  24 C :    0.074388
  25 H :    0.021655
  26 C :    0.073276
  27 H :    0.021861
  28 H :    0.035090
  29 H :    0.038278
  30 H :    0.045773
  31 H :    0.052998
  32 H :    0.044640
  33 H :    0.053293
  34 H :    0.038885
  35 H :    0.038341
  36 H :    0.045695
  37 H :    0.053091
  38 H :    0.038846
  39 H :    0.044760
  40 H :    0.053131
Sum of atomic charges:   -0.0000000

LOEWDIN ATOMIC CHARGES
----------------------
   0 N :    0.043053
   1 C :   -0.286553
   2 N :    0.043055
   3 C :   -0.022187
   4 C :   -0.022132
   5 C :   -0.000681
   6 C :   -0.000690
   7 C :   -0.024067
   8 C :   -0.023288
   9 C :   -0.024019
  10 C :   -0.023305
  11 H :    0.046128
  12 H :    0.046133
  13 C :   -0.045983
  14 C :   -0.026419
  15 C :   -0.046080
  16 C :   -0.046086
  17 C :   -0.026407
  18 C :   -0.045977
  19 C :   -0.052701
  20 C :   -0.052719
  21 H :    0.037303
  22 H :    0.040687
  23 H :    0.037368
  24 C :   -0.052690
  25 H :    0.037317
  26 C :   -0.052716
  27 H :    0.037370
  28 H :    0.040682
  29 H :    0.037310
  30 H :    0.038941
  31 H :    0.039492
  32 H :    0.038024
  33 H :    0.041358
  34 H :    0.037657
  35 H :    0.037328
  36 H :    0.038871
  37 H :    0.039634
  38 H :    0.037639
  39 H :    0.038029
  40 H :    0.041321

  Mayer bond orders larger than 0.100000
B(  0-N ,  1-C ) :   1.2247 B(  0-N ,  4-C ) :   1.0969 B(  0-N ,  5-C ) :   0.9498
B(  1-C ,  2-N ) :   1.2249 B(  2-N ,  3-C ) :   1.0968 B(  2-N ,  6-C ) :   0.9499
B(  3-C ,  4-C ) :   1.6198 B(  3-C , 11-H ) :   0.9921 B(  4-C , 12-H ) :   0.9921
B(  5-C ,  7-C ) :   1.4299 B(  5-C ,  8-C ) :   1.4315 B(  6-C ,  9-C ) :   1.4297
B(  6-C , 10-C ) :   1.4318 B(  7-C , 15-C ) :   1.3917 B(  7-C , 19-C ) :   1.0497
B(  8-C , 13-C ) :   1.3907 B(  8-C , 20-C ) :   1.0502 B(  9-C , 16-C ) :   1.3919
B(  9-C , 24-C ) :   1.0497 B( 10-C , 18-C ) :   1.3904 B( 10-C , 26-C ) :   1.0502
B( 13-C , 14-C ) :   1.3809 B( 13-C , 21-H ) :   0.9955 B( 14-C , 15-C ) :   1.3802
B( 14-C , 22-H ) :   0.9944 B( 15-C , 23-H ) :   0.9955 B( 16-C , 17-C ) :   1.3800
B( 16-C , 27-H ) :   0.9955 B( 17-C , 18-C ) :   1.3812 B( 17-C , 28-H ) :   0.9944
B( 18-C , 25-H ) :   0.9956 B( 19-C , 32-H ) :   0.9541 B( 19-C , 33-H ) :   0.9520
B( 19-C , 34-H ) :   0.9578 B( 20-C , 29-H ) :   0.9571 B( 20-C , 30-H ) :   0.9559
B( 20-C , 31-H ) :   0.9508 B( 24-C , 38-H ) :   0.9578 B( 24-C , 39-H ) :   0.9540
B( 24-C , 40-H ) :   0.9521 B( 26-C , 35-H ) :   0.9571 B( 26-C , 36-H ) :   0.9559
B( 26-C , 37-H ) :   0.9510

Dispersion correction           -0.009608851
FINAL SINGLE POINT ENERGY      -844.749604493602

DIPOLE MOMENT
-------------
                                X             Y             Z
Electronic contribution:      0.00478       0.00462       0.40880
Nuclear contribution   :      0.00502       0.00827       1.12886
                        -----------------------------------------
Total Dipole Moment    :      0.00980       0.01289       1.53766
                        -----------------------------------------
Magnitude (a.u.)       :      1.53774
Magnitude (Debye)      :      3.90863

Dispersion correction in the Hessian             ... Starting D4

VIBRATIONAL FREQUENCIES
-----------------------

Scaling factor for frequencies =  1.000000000  (already applied!)

   0:         0.00 cm**-1
   1:         0.00 cm**-1
   2:         0.00 cm**-1
   3:         0.00 cm**-1
   4:         0.00 cm**-1
   5:         0.00 cm**-1
   6:        26.78 cm**-1
   7:        29.20 cm**-1
   8:        58.73 cm**-1
   9:        63.63 cm**-1
  10:        88.68 cm**-1
  11:        96.17 cm**-1
  12:       135.60 cm**-1
  13:       151.06 cm**-1
  14:       153.32 cm**-1
  15:       160.37 cm**-1
  16:       162.59 cm**-1
  17:       199.45 cm**-1
  18:       209.38 cm**-1
  19:       238.99 cm**-1
  20:       239.89 cm**-1
  21:       284.48 cm**-1
  22:       308.22 cm**-1
  23:       337.91 cm**-1
  24:       358.15 cm**-1
  25:       362.12 cm**-1
  26:       399.25 cm**-1
  27:       437.21 cm**-1
  28:       485.74 cm**-1
  29:       494.95 cm**-1
  30:       538.46 cm**-1
  31:       538.91 cm**-1
  32:       543.50 cm**-1
  33:       547.22 cm**-1
  34:       579.64 cm**-1
  35:       594.99 cm**-1
  36:       604.31 cm**-1
  37:       628.30 cm**-1
  38:       685.57 cm**-1
  39:       687.94 cm**-1
  40:       753.38 cm**-1
  41:       768.69 cm**-1
  42:       779.95 cm**-1
  43:       787.42 cm**-1
  44:       796.29 cm**-1
  45:       809.54 cm**-1
  46:       810.50 cm**-1
  47:       887.37 cm**-1
  48:       942.81 cm**-1
  49:       942.91 cm**-1
  50:       944.52 cm**-1
  51:       945.31 cm**-1
  52:       963.98 cm**-1
  53:       973.45 cm**-1
  54:      1007.81 cm**-1
  55:      1008.18 cm**-1
  56:      1035.31 cm**-1
  57:      1035.75 cm**-1
  58:      1057.75 cm**-1
  59:      1058.06 cm**-1
  60:      1060.35 cm**-1
  61:      1060.97 cm**-1
  62:      1062.11 cm**-1
  63:      1062.15 cm**-1
  64:      1087.82 cm**-1
  65:      1097.66 cm**-1
  66:      1101.48 cm**-1
  67:      1129.22 cm**-1
  68:      1141.04 cm**-1
  69:      1173.71 cm**-1
  70:      1173.98 cm**-1
  71:      1267.26 cm**-1
  72:      1280.27 cm**-1
  73:      1280.69 cm**-1
  74:      1297.45 cm**-1
  75:      1302.87 cm**-1
  76:      1330.39 cm**-1
  77:      1330.51 cm**-1
  78:      1336.83 cm**-1
  79:      1380.00 cm**-1
  80:      1392.89 cm**-1
  81:      1393.43 cm**-1
  82:      1397.16 cm**-1
  83:      1400.88 cm**-1
  84:      1419.58 cm**-1
  85:      1434.66 cm**-1
  86:      1444.34 cm**-1
  87:      1445.44 cm**-1
  88:      1446.12 cm**-1
  89:      1446.79 cm**-1
  90:      1451.00 cm**-1
  91:      1451.65 cm**-1
  92:      1456.54 cm**-1
  93:      1471.29 cm**-1
  94:      1533.26 cm**-1
  95:      1533.49 cm**-1
  96:      1555.43 cm**-1
  97:      1561.83 cm**-1
  98:      1651.67 cm**-1
  99:      1698.18 cm**-1
 100:      1699.88 cm**-1
 101:      1702.83 cm**-1
 102:      1703.27 cm**-1
 103:      3065.78 cm**-1
 104:      3066.26 cm**-1
 105:      3066.53 cm**-1
 106:      3067.01 cm**-1
 107:      3154.04 cm**-1
 108:      3154.39 cm**-1
 109:      3155.56 cm**-1
 110:      3155.69 cm**-1
 111:      3185.17 cm**-1
 112:      3185.23 cm**-1
 113:      3185.96 cm**-1
 114:      3186.01 cm**-1
 115:      3206.31 cm**-1
 116:      3206.37 cm**-1
 117:      3213.41 cm**-1
 118:      3213.48 cm**-1
 119:      3227.49 cm**-1
 120:      3227.52 cm**-1
 121:      3285.35 cm**-1
 122:      3306.62 cm**-1

IR SPECTRUM
-----------

 Mode   freq       eps      Int      T**2         TX        TY        TZ
       cm**-1   L/(mol*cm) km/mol    a.u.
----------------------------------------------------------------------------
  6:     26.78   0.000004    0.02  0.000043  (-0.000589  0.000090 -0.006540)
  7:     29.20   0.000019    0.09  0.000201  (-0.001100  0.014118  0.000571)
  8:     58.73   0.000064    0.32  0.000339  (-0.000320 -0.000902 -0.018378)
  9:     63.63   0.002880   14.56  0.014127  (-0.006873 -0.118653  0.000994)
 10:     88.68   0.000009    0.04  0.000031  (-0.000928 -0.002425  0.004919)
 11:     96.17   0.000094    0.47  0.000304  ( 0.016825 -0.004528 -0.000269)
 12:    135.60   0.000982    4.96  0.002260  (-0.000750 -0.001230 -0.047513)
 13:    151.06   0.000147    0.74  0.000303  ( 0.000175  0.010060 -0.014196)
 14:    153.32   0.000078    0.40  0.000159  ( 0.011859 -0.004289  0.000265)
 15:    160.37   0.000195    0.99  0.000380  ( 0.013145  0.014023  0.003219)
 16:    162.59   0.000147    0.74  0.000282  (-0.005975  0.001423  0.015622)
 17:    199.45   0.002067   10.44  0.003233  (-0.056742 -0.003712 -0.000308)
 18:    209.38   0.000670    3.39  0.000999  (-0.000111 -0.000504 -0.031596)
 19:    238.99   0.000005    0.02  0.000006  (-0.000416 -0.000882 -0.002267)
 20:    239.89   0.000032    0.16  0.000041  (-0.003581 -0.005324  0.000043)
 21:    284.48   0.000826    4.18  0.000907  (-0.029778  0.004444 -0.000021)
 22:    308.22   0.003357   16.96  0.003399  ( 0.005884  0.057999 -0.000489)
 23:    337.91   0.001901    9.61  0.001755  (-0.000001 -0.000474 -0.041896)
 24:    358.15   0.000643    3.25  0.000560  (-0.000226 -0.000054 -0.023661)
 25:    362.12   0.000442    2.23  0.000381  (-0.000121 -0.000117 -0.019511)
 26:    399.25   0.000687    3.47  0.000537  (-0.022685  0.004751  0.000115)
 27:    437.21   0.000029    0.15  0.000021  ( 0.003777 -0.002502  0.000106)
 28:    485.74   0.000135    0.68  0.000087  (-0.001049 -0.009260  0.000049)
 29:    494.95   0.000000    0.00  0.000000  (-0.000016  0.000119  0.000233)
 30:    538.46   0.000057    0.29  0.000033  (-0.001074  0.005657 -0.000177)
 31:    538.91   0.000000    0.00  0.000000  ( 0.000170 -0.000387  0.000099)
 32:    543.50   0.000089    0.45  0.000051  (-0.000043 -0.007135 -0.000054)
 33:    547.22   0.000004    0.02  0.000002  (-0.000013  0.000152 -0.001569)
 34:    579.64   0.000295    1.49  0.000159  ( 0.000048  0.000131  0.012607)
 35:    594.99   0.000047    0.24  0.000025  (-0.000063 -0.000090 -0.004982)
 36:    604.31   0.000033    0.17  0.000017  (-0.003722  0.001732 -0.000124)
 37:    628.30   0.002094   10.58  0.001040  ( 0.032130 -0.002739 -0.000079)
 38:    685.57   0.000035    0.18  0.000016  (-0.000040  0.002725 -0.002908)
 39:    687.94   0.002503   12.65  0.001135  ( 0.001794 -0.033646  0.000086)
 40:    753.38   0.014015   70.83  0.005805  (-0.004768 -0.076040  0.000709)
 41:    768.69   0.000064    0.32  0.000026  ( 0.000112 -0.000207  0.005072)
 42:    779.95   0.001111    5.61  0.000444  ( 0.021006 -0.001789 -0.000021)
 43:    787.42   0.000329    1.66  0.000130  (-0.000251  0.000023 -0.011408)
 44:    796.29   0.001380    6.98  0.000541  ( 0.023050 -0.003000 -0.000846)
 45:    809.54   0.018978   95.91  0.007316  ( 0.000005 -0.000386 -0.085532)
 46:    810.50   0.003596   18.18  0.001385  (-0.036787 -0.005525 -0.000966)
 47:    887.37   0.000001    0.01  0.000000  ( 0.000006 -0.000631 -0.000065)
 48:    942.81   0.001720    8.69  0.000569  (-0.000092 -0.023843  0.000956)
 49:    942.91   0.000160    0.81  0.000053  (-0.000368  0.006849  0.002448)
 50:    944.52   0.000286    1.44  0.000094  ( 0.001096  0.009426  0.002074)
 51:    945.31   0.000220    1.11  0.000073  (-0.001193 -0.008095  0.002398)
 52:    963.98   0.008957   45.26  0.002900  ( 0.053746 -0.003297 -0.000288)
 53:    973.45   0.000840    4.24  0.000269  (-0.000275 -0.000115 -0.016406)
 54:   1007.81   0.002202   11.13  0.000682  (-0.026003  0.002150  0.000943)
 55:   1008.18   0.000172    0.87  0.000053  ( 0.004916 -0.000207  0.005383)
 56:   1035.31   0.000064    0.32  0.000019  (-0.000110  0.002326 -0.003715)
 57:   1035.75   0.000243    1.23  0.000073  (-0.000133  0.001064  0.008486)
 58:   1057.75   0.000721    3.64  0.000213  ( 0.003155 -0.004096  0.013640)
 59:   1058.06   0.001164    5.88  0.000343  (-0.002501  0.003244  0.018068)
 60:   1060.35   0.000252    1.27  0.000074  (-0.008332 -0.001178 -0.001793)
 61:   1060.97   0.003497   17.67  0.001029  ( 0.000238 -0.001441 -0.032038)
 62:   1062.11   0.000628    3.17  0.000185  ( 0.001379 -0.013444  0.001395)
 63:   1062.15   0.000255    1.29  0.000075  ( 0.001237 -0.007852  0.003409)
 64:   1087.82   0.005607   28.34  0.001609  (-0.000153 -0.000497 -0.040104)
 65:   1097.66   0.000011    0.06  0.000003  ( 0.001528 -0.000788 -0.000385)
 66:   1101.48   0.000099    0.50  0.000028  ( 0.000255  0.000071  0.005294)
 67:   1129.22   0.007695   38.89  0.002126  ( 0.046063 -0.002144 -0.000158)
 68:   1141.04   0.000211    1.07  0.000058  ( 0.000747 -0.000179 -0.007553)
 69:   1173.71   0.000590    2.98  0.000157  ( 0.000358  0.012501  0.000738)
 70:   1173.98   0.000631    3.19  0.000168  (-0.000726 -0.012889  0.001030)
 71:   1267.26   0.009198   46.48  0.002265  (-0.047492  0.003093  0.000206)
 72:   1280.27   0.000057    0.29  0.000014  ( 0.001863  0.003206  0.000487)
 73:   1280.69   0.000098    0.50  0.000024  (-0.002297 -0.004302  0.000333)
 74:   1297.45   0.000014    0.07  0.000003  (-0.000076 -0.000091 -0.001799)
 75:   1302.87   0.001233    6.23  0.000295  ( 0.017133 -0.001366 -0.000115)
 76:   1330.39   0.001482    7.49  0.000348  (-0.005651 -0.017769 -0.000214)
 77:   1330.51   0.001315    6.65  0.000308  (-0.005202 -0.016765  0.000530)
 78:   1336.83   0.002391   12.08  0.000558  ( 0.021906 -0.008840 -0.000143)
 79:   1380.00   0.001105    5.58  0.000250  (-0.000082 -0.000260 -0.015803)
 80:   1392.89   0.000058    0.30  0.000013  (-0.000970 -0.000565  0.003440)
 81:   1393.43   0.000103    0.52  0.000023  (-0.003687 -0.002948 -0.000847)
 82:   1397.16   0.000003    0.01  0.000001  ( 0.000025  0.000025  0.000772)
 83:   1400.88   0.001985   10.03  0.000442  ( 0.020731 -0.003511  0.000216)
 84:   1419.58   0.000410    2.07  0.000090  ( 0.000331 -0.000030 -0.009491)
 85:   1434.66   0.007997   40.41  0.001740  (-0.041672 -0.001143  0.001287)
 86:   1444.34   0.003912   19.77  0.000845  ( 0.007812 -0.003551  0.027777)
 87:   1445.44   0.002839   14.35  0.000613  ( 0.022578 -0.009641  0.003202)
 88:   1446.12   0.006073   30.69  0.001311  ( 0.008795 -0.005491 -0.034686)
 89:   1446.79   0.001498    7.57  0.000323  ( 0.010940 -0.013895  0.003234)
 90:   1451.00   0.001982   10.02  0.000426  ( 0.001273  0.004052 -0.020206)
 91:   1451.65   0.002599   13.13  0.000559  (-0.014411 -0.018199 -0.004448)
 92:   1456.54   0.000035    0.18  0.000008  (-0.000478 -0.000855 -0.002565)
 93:   1471.29   0.002305   11.65  0.000489  (-0.022084  0.001022  0.000257)
 94:   1533.26   0.000809    4.09  0.000165  ( 0.000566  0.012478  0.002942)
 95:   1533.49   0.009741   49.23  0.001982  ( 0.002674  0.044428 -0.001149)
 96:   1555.43   0.058464  295.45  0.011730  ( 0.108038 -0.007547 -0.000555)
 97:   1561.83   0.002343   11.84  0.000468  ( 0.000114  0.000233  0.021635)
 98:   1651.67   0.000342    1.73  0.000065  ( 0.000181  0.000026  0.008037)
 99:   1698.18   0.000074    0.38  0.000014  (-0.003665 -0.000491  0.000055)
100:   1699.88   0.000020    0.10  0.000004  (-0.000027  0.000170 -0.001925)
101:   1702.83   0.000036    0.18  0.000007  ( 0.000004 -0.000076  0.002550)
102:   1703.27   0.005151   26.03  0.000944  ( 0.000730  0.030712 -0.000170)
103:   3065.78   0.012262   61.97  0.001248  (-0.002631 -0.035210  0.001217)
104:   3066.26   0.000760    3.84  0.000077  ( 0.002206 -0.004263 -0.007368)
105:   3066.53   0.000190    0.96  0.000019  (-0.000241  0.004252  0.001080)
106:   3067.01   0.003506   17.72  0.000357  ( 0.018592 -0.003186  0.000964)
107:   3154.04   0.002169   10.96  0.000215  ( 0.002943  0.000131  0.014351)
108:   3154.39   0.002160   10.92  0.000214  (-0.002444  0.000233  0.014412)
109:   3155.56   0.000751    3.80  0.000074  ( 0.004216  0.003137  0.006831)
110:   3155.69   0.001042    5.27  0.000103  (-0.003250 -0.002469  0.009294)
111:   3185.17   0.005586   28.23  0.000547  ( 0.015325  0.017667  0.000515)
112:   3185.23   0.000518    2.62  0.000051  ( 0.001660  0.002081 -0.006606)
113:   3185.96   0.004509   22.79  0.000442  (-0.016338  0.013015 -0.002315)
114:   3186.01   0.001753    8.86  0.000172  ( 0.009557 -0.007997 -0.004054)
115:   3206.31   0.000001    0.00  0.000000  (-0.000102  0.000172  0.000117)
116:   3206.37   0.000000    0.00  0.000000  ( 0.000065 -0.000034  0.000161)
117:   3213.41   0.002896   14.63  0.000281  (-0.000760 -0.016724 -0.000977)
118:   3213.48   0.002908   14.70  0.000282  (-0.000815 -0.016743  0.001193)
119:   3227.49   0.004488   22.68  0.000434  ( 0.020543 -0.001542  0.003092)
120:   3227.52   0.001561    7.89  0.000151  ( 0.010544 -0.000920 -0.006238)
121:   3285.35   0.003168   16.01  0.000301  (-0.017313  0.001060  0.000148)
122:   3306.62   0.000693    3.50  0.000065  (-0.000015  0.000070  0.008087)

--------------------------
THERMOCHEMISTRY AT 298.15K
--------------------------

Temperature         ... 298.15 K
Pressure            ... 1.00 atm
Total Mass          ... 276.38 AMU

Throughout the following assumptions are being made:
  (1) The electronic state is orbitally nondegenerate
  (2) There are no thermally accessible electronically excited states
  (3) Hindered rotations indicated by low frequency modes are not
      treated as such but are treated as vibrations and this may
      cause some error
  (4) All equations used are the standard statistical mechanics
      equations for an ideal gas
  (5) All vibrations are strictly harmonic

freq.      26.78  E(vib)   ...       0.56
freq.      29.20  E(vib)   ...       0.55
freq.      58.73  E(vib)   ...       0.51
freq.      63.63  E(vib)   ...       0.51
freq.      88.68  E(vib)   ...       0.47
freq.      96.17  E(vib)   ...       0.47
freq.     135.60  E(vib)   ...       0.42
freq.     151.06  E(vib)   ...       0.40
freq.     153.32  E(vib)   ...       0.40
freq.     160.37  E(vib)   ...       0.39
freq.     162.59  E(vib)   ...       0.39
freq.     199.45  E(vib)   ...       0.35
freq.     209.38  E(vib)   ...       0.34
freq.     238.99  E(vib)   ...       0.32
freq.     239.89  E(vib)   ...       0.31
freq.     284.48  E(vib)   ...       0.28
freq.     308.22  E(vib)   ...       0.26
freq.     337.91  E(vib)   ...       0.24
freq.     358.15  E(vib)   ...       0.22
freq.     362.12  E(vib)   ...       0.22
freq.     399.25  E(vib)   ...       0.19
freq.     437.21  E(vib)   ...       0.17
freq.     485.74  E(vib)   ...       0.15
freq.     494.95  E(vib)   ...       0.14
freq.     538.46  E(vib)   ...       0.12
freq.     538.91  E(vib)   ...       0.12
freq.     543.50  E(vib)   ...       0.12
freq.     547.22  E(vib)   ...       0.12
freq.     579.64  E(vib)   ...       0.11
freq.     594.99  E(vib)   ...       0.10
freq.     604.31  E(vib)   ...       0.10
freq.     628.30  E(vib)   ...       0.09
freq.     685.57  E(vib)   ...       0.07
freq.     687.94  E(vib)   ...       0.07
freq.     753.38  E(vib)   ...       0.06
freq.     768.69  E(vib)   ...       0.06
freq.     779.95  E(vib)   ...       0.05
freq.     787.42  E(vib)   ...       0.05
freq.     796.29  E(vib)   ...       0.05
freq.     809.54  E(vib)   ...       0.05
freq.     810.50  E(vib)   ...       0.05
freq.     887.37  E(vib)   ...       0.04
freq.     942.81  E(vib)   ...       0.03
freq.     942.91  E(vib)   ...       0.03
freq.     944.52  E(vib)   ...       0.03
freq.     945.31  E(vib)   ...       0.03
freq.     963.98  E(vib)   ...       0.03
freq.     973.45  E(vib)   ...       0.03
freq.    1007.81  E(vib)   ...       0.02
freq.    1008.18  E(vib)   ...       0.02
freq.    1035.31  E(vib)   ...       0.02
freq.    1035.75  E(vib)   ...       0.02
freq.    1057.75  E(vib)   ...       0.02
freq.    1058.06  E(vib)   ...       0.02
freq.    1060.35  E(vib)   ...       0.02
freq.    1060.97  E(vib)   ...       0.02
freq.    1062.11  E(vib)   ...       0.02
freq.    1062.15  E(vib)   ...       0.02
freq.    1087.82  E(vib)   ...       0.02
freq.    1097.66  E(vib)   ...       0.02
freq.    1101.48  E(vib)   ...       0.02
freq.    1129.22  E(vib)   ...       0.01
freq.    1141.04  E(vib)   ...       0.01
freq.    1173.71  E(vib)   ...       0.01
freq.    1173.98  E(vib)   ...       0.01
freq.    1267.26  E(vib)   ...       0.01
freq.    1280.27  E(vib)   ...       0.01
freq.    1280.69  E(vib)   ...       0.01
freq.    1297.45  E(vib)   ...       0.01
freq.    1302.87  E(vib)   ...       0.01
freq.    1330.39  E(vib)   ...       0.01
freq.    1330.51  E(vib)   ...       0.01
freq.    1336.83  E(vib)   ...       0.01
freq.    1380.00  E(vib)   ...       0.01
freq.    1392.89  E(vib)   ...       0.00
freq.    1393.43  E(vib)   ...       0.00
freq.    1397.16  E(vib)   ...       0.00
freq.    1400.88  E(vib)   ...       0.00
freq.    1419.58  E(vib)   ...       0.00
freq.    1434.66  E(vib)   ...       0.00
freq.    1444.34  E(vib)   ...       0.00
freq.    1445.44  E(vib)   ...       0.00
freq.    1446.12  E(vib)   ...       0.00
freq.    1446.79  E(vib)   ...       0.00
freq.    1451.00  E(vib)   ...       0.00
freq.    1451.65  E(vib)   ...       0.00
freq.    1456.54  E(vib)   ...       0.00
freq.    1471.29  E(vib)   ...       0.00
freq.    1533.26  E(vib)   ...       0.00
freq.    1533.49  E(vib)   ...       0.00
freq.    1555.43  E(vib)   ...       0.00
freq.    1561.83  E(vib)   ...       0.00
freq.    1651.67  E(vib)   ...       0.00
freq.    1698.18  E(vib)   ...       0.00
freq.    1699.88  E(vib)   ...       0.00
freq.    1702.83  E(vib)   ...       0.00
freq.    1703.27  E(vib)   ...       0.00
freq.    3065.78  E(vib)   ...       0.00
freq.    3066.26  E(vib)   ...       0.00
freq.    3066.53  E(vib)   ...       0.00
freq.    3067.01  E(vib)   ...       0.00
freq.    3154.04  E(vib)   ...       0.00
freq.    3154.39  E(vib)   ...       0.00
freq.    3155.56  E(vib)   ...       0.00
freq.    3155.69  E(vib)   ...       0.00
freq.    3185.17  E(vib)   ...       0.00
freq.    3185.23  E(vib)   ...       0.00
freq.    3185.96  E(vib)   ...       0.00
freq.    3186.01  E(vib)   ...       0.00
freq.    3206.31  E(vib)   ...       0.00
freq.    3206.37  E(vib)   ...       0.00
freq.    3213.41  E(vib)   ...       0.00
freq.    3213.48  E(vib)   ...       0.00
freq.    3227.49  E(vib)   ...       0.00
freq.    3227.52  E(vib)   ...       0.00
freq.    3285.35  E(vib)   ...       0.00
freq.    3306.62  E(vib)   ...       0.00

------------
INNER ENERGY
------------

The inner energy is: U= E(el) + E(ZPE) + E(vib) + E(rot) + E(trans)
    E(el)   - is the total energy from the electronic structure calculation
              = E(kin-el) + E(nuc-el) + E(el-el) + E(nuc-nuc)
    E(ZPE)  - the the zero temperature vibrational energy from the frequency calculation
    E(vib)  - the the finite temperature correction to E(ZPE) due to population
              of excited vibrational states
    E(rot)  - is the rotational thermal energy
    E(trans)- is the translational thermal energy

Summary of contributions to the inner energy U:
Electronic energy                ...   -844.74960449 Eh
Zero point energy                ...      0.34605878 Eh     217.15 kcal/mol
Thermal vibrational correction   ...      0.01640114 Eh      10.29 kcal/mol
Thermal rotational correction    ...      0.00141627 Eh       0.89 kcal/mol
Thermal translational correction ...      0.00141627 Eh       0.89 kcal/mol
-----------------------------------------------------------------------
Total thermal energy                   -844.38431203 Eh

Summary of corrections to the electronic energy:
(perhaps to be used in another calculation)
Total thermal correction                  0.01923368 Eh      12.07 kcal/mol

Rotational constants in cm-1:     0.023565     0.005960     0.005193

                             ****ORCA TERMINATED NORMALLY****
TOTAL RUN TIME: 0 days 4 hours 12 minutes 35 seconds 135 msec
