                         Program Version 5.0.4 -  RELEASE  -
|  1> # ORCA 5.0.4 - /users/bwb16179/postgrad/2024_03/DFT_Crest_Conformers/Opt/deprot/8_deprot_aq_3.inp # write input file
|  2> # Basic Mode
|  3> #
|  4> ! Opt Freq wB97X Def2-SVP D4 SlowConv TightSCF Defgrid2 Def2/J RIJCOSX CPCM(Water)
|  5>
|  6>
|  7>
|  8> %maxcore 4500
|  9>
| 10> %geom
| 11> Maxiter 150
| 12> END
| 13>
| 14> * xyzfile 0 1 8_deprot_aq_3.xyz
| 15>
| 16>                          ****END OF INPUT****
 Total Charge           Charge          ....    0
 Multiplicity           Mult            ....    1
 Number of Electrons    NEL             ....  148
Dispersion correction           -0.009610583
FINAL SINGLE POINT ENERGY      -844.749333009841
Dispersion correction            ... Starting D4
Dispersion correction           -0.009611634
FINAL SINGLE POINT ENERGY      -844.749423159745
Dispersion correction            ... Starting D4
Dispersion correction           -0.009613452
FINAL SINGLE POINT ENERGY      -844.749486326292
Dispersion correction            ... Starting D4
FINAL SINGLE POINT ENERGY      -844.749498862082
FINAL SINGLE POINT ENERGY      -844.749506751165
FINAL SINGLE POINT ENERGY      -844.749523880666
FINAL SINGLE POINT ENERGY      -844.749533093694
FINAL SINGLE POINT ENERGY      -844.749550088810
FINAL SINGLE POINT ENERGY      -844.749562037140
Dispersion correction           -0.009613493
FINAL SINGLE POINT ENERGY      -844.749566072475
Dispersion correction            ... Starting D4
Dispersion correction           -0.009612394
FINAL SINGLE POINT ENERGY      -844.749565573036
Dispersion correction            ... Starting D4
                    ***********************HURRAY********************

CARTESIAN COORDINATES (ANGSTROEM)
---------------------------------
  N     -1.059756    0.062635    0.460715
  C      0.004391    0.019319   -0.386067
  N      1.056281   -0.035234    0.475212
  C      0.664701   -0.027546    1.809111
  C     -0.687325    0.036093    1.799944
  C     -2.419145    0.131128    0.013267
  C      2.421714   -0.096064    0.045088
  C     -3.023366    1.390444   -0.115951
  C     -3.095021   -1.062241   -0.279877
  C      3.023163   -1.353410   -0.112110
  C      3.105902    1.102701   -0.203434
  H      1.378233   -0.067124    2.630617
  H     -1.412682    0.064605    2.611476
  C     -4.421143   -0.972638   -0.715843
  C     -5.044453    0.266129   -0.850837
  C     -4.350615    1.437430   -0.554159
  C      4.356470   -1.392578   -0.532494
  C      5.058568   -0.215776   -0.784745
  C      4.437884    1.020978   -0.622491
  C     -2.257608    2.648187    0.200648
  C     -2.404860   -2.393959   -0.143041
  H     -4.968669   -1.890624   -0.950375
  H     -6.082584    0.319232   -1.191360
  H     -4.841695    2.409283   -0.662837
  C      2.248706   -2.616816    0.156090
  H      4.991520    1.943467   -0.822380
  C      2.417540    2.431589   -0.034008
  H      4.846256   -2.362535   -0.661982
  H      6.101414   -0.263348   -1.111455
  H     -1.587955   -2.488230   -0.876742
  H     -3.112446   -3.218267   -0.307532
  H     -1.954158   -2.514480    0.854598
  H     -2.866236    3.538714   -0.007966
  H     -1.333492    2.707707   -0.396070
  H     -1.957298    2.676905    1.260347
  H      1.578270    2.531075   -0.741014
  H      3.118145    3.259568   -0.209331
  H      1.997319    2.540100    0.978439
  H      1.908319   -2.662030    1.202950
  H      2.865153   -3.503861   -0.043895
  H      1.347560   -2.667389   -0.475846

 Multiplicity           Mult            ....    1
 Number of Electrons    NEL             ....  148
 Basis Dimension        Dim             ....  394

ORBITAL ENERGIES
----------------

  NO   OCC          E(Eh)            E(eV)
   0   2.0000     -14.459249      -393.4562
   1   2.0000     -14.459232      -393.4557
   2   2.0000     -10.310877      -280.5732
   3   2.0000     -10.310821      -280.5717
   4   2.0000     -10.303692      -280.3777
   5   2.0000     -10.303095      -280.3615
   6   2.0000     -10.289200      -279.9834
   7   2.0000     -10.289043      -279.9791
   8   2.0000     -10.289033      -279.9788
   9   2.0000     -10.289025      -279.9786
  10   2.0000     -10.289014      -279.9783
  11   2.0000     -10.278192      -279.6838
  12   2.0000     -10.278187      -279.6837
  13   2.0000     -10.274037      -279.5708
  14   2.0000     -10.274014      -279.5701
  15   2.0000     -10.274006      -279.5699
  16   2.0000     -10.273999      -279.5697
  17   2.0000     -10.269320      -279.4424
  18   2.0000     -10.269295      -279.4417
  19   2.0000     -10.269067      -279.4355
  20   2.0000     -10.269043      -279.4349
  21   2.0000      -1.159936       -31.5634
  22   2.0000      -1.060221       -28.8501
  23   2.0000      -0.997800       -27.1515
  24   2.0000      -0.976772       -26.5793
  25   2.0000      -0.913029       -24.8448
  26   2.0000      -0.912680       -24.8353
  27   2.0000      -0.907051       -24.6821
  28   2.0000      -0.873163       -23.7600
  29   2.0000      -0.869851       -23.6698
  30   2.0000      -0.829238       -22.5647
  31   2.0000      -0.811106       -22.0713
  32   2.0000      -0.801327       -21.8052
  33   2.0000      -0.800399       -21.7800
  34   2.0000      -0.761715       -20.7273
  35   2.0000      -0.736956       -20.0536
  36   2.0000      -0.698529       -19.0079
  37   2.0000      -0.696784       -18.9605
  38   2.0000      -0.696012       -18.9395
  39   2.0000      -0.678861       -18.4727
  40   2.0000      -0.650356       -17.6971
  41   2.0000      -0.617820       -16.8117
  42   2.0000      -0.612063       -16.6551
  43   2.0000      -0.598359       -16.2822
  44   2.0000      -0.591743       -16.1022
  45   2.0000      -0.562571       -15.3083
  46   2.0000      -0.554773       -15.0961
  47   2.0000      -0.551338       -15.0027
  48   2.0000      -0.536754       -14.6058
  49   2.0000      -0.534897       -14.5553
  50   2.0000      -0.529508       -14.4086
  51   2.0000      -0.525091       -14.2884
  52   2.0000      -0.524266       -14.2660
  53   2.0000      -0.521728       -14.1969
  54   2.0000      -0.518515       -14.1095
  55   2.0000      -0.513718       -13.9790
  56   2.0000      -0.513589       -13.9755
  57   2.0000      -0.509296       -13.8587
  58   2.0000      -0.506657       -13.7868
  59   2.0000      -0.478735       -13.0271
  60   2.0000      -0.476419       -12.9640
  61   2.0000      -0.462123       -12.5750
  62   2.0000      -0.459361       -12.4999
  63   2.0000      -0.456232       -12.4147
  64   2.0000      -0.451688       -12.2911
  65   2.0000      -0.445736       -12.1291
  66   2.0000      -0.444985       -12.1086
  67   2.0000      -0.390363       -10.6223
  68   2.0000      -0.348859        -9.4929
  69   2.0000      -0.343820        -9.3558
  70   2.0000      -0.339233        -9.2310
  71   2.0000      -0.337334        -9.1793
  72   2.0000      -0.333488        -9.0747
  73   2.0000      -0.333037        -9.0624
  74   0.0000       0.061066         1.6617
  75   0.0000       0.067276         1.8307
  76   0.0000       0.072081         1.9614
  77   0.0000       0.073629         2.0035
  78   0.0000       0.105981         2.8839

MULLIKEN ATOMIC CHARGES
-----------------------
   0 N :   -0.213831
   1 C :   -0.137145
   2 N :   -0.213744
   3 C :    0.045337
   4 C :    0.045624
   5 C :    0.046534
   6 C :    0.046456
   7 C :   -0.100554
   8 C :   -0.100767
   9 C :   -0.100238
  10 C :   -0.100741
  11 H :    0.071186
  12 H :    0.071220
  13 C :   -0.092378
  14 C :    0.005909
  15 C :   -0.093271
  16 C :   -0.093360
  17 C :    0.006100
  18 C :   -0.092500
  19 C :    0.074322
  20 C :    0.073223
  21 H :    0.021652
  22 H :    0.035063
  23 H :    0.021788
  24 C :    0.074220
  25 H :    0.021629
  26 C :    0.072811
  27 H :    0.021776
  28 H :    0.035049
  29 H :    0.052851
  30 H :    0.038325
  31 H :    0.045998
  32 H :    0.038787
  33 H :    0.045472
  34 H :    0.052799
  35 H :    0.051759
  36 H :    0.038135
  37 H :    0.047706
  38 H :    0.051906
  39 H :    0.038710
  40 H :    0.046180
Sum of atomic charges:    0.0000000

LOEWDIN ATOMIC CHARGES
----------------------
   0 N :    0.043109
   1 C :   -0.286492
   2 N :    0.043187
   3 C :   -0.022246
   4 C :   -0.022270
   5 C :   -0.000703
   6 C :   -0.000654
   7 C :   -0.023962
   8 C :   -0.023366
   9 C :   -0.023867
  10 C :   -0.023384
  11 H :    0.046103
  12 H :    0.046099
  13 C :   -0.045979
  14 C :   -0.026398
  15 C :   -0.046070
  16 C :   -0.046143
  17 C :   -0.026360
  18 C :   -0.046072
  19 C :   -0.052688
  20 C :   -0.052695
  21 H :    0.037298
  22 H :    0.040679
  23 H :    0.037352
  24 C :   -0.052683
  25 H :    0.037298
  26 C :   -0.052765
  27 H :    0.037337
  28 H :    0.040683
  29 H :    0.039665
  30 H :    0.037332
  31 H :    0.038934
  32 H :    0.037612
  33 H :    0.038063
  34 H :    0.041260
  35 H :    0.039003
  36 H :    0.037304
  37 H :    0.039644
  38 H :    0.040902
  39 H :    0.037551
  40 H :    0.038381

  Mayer bond orders larger than 0.100000
B(  0-N ,  1-C ) :   1.2251 B(  0-N ,  4-C ) :   1.0970 B(  0-N ,  5-C ) :   0.9500
B(  1-C ,  2-N ) :   1.2254 B(  2-N ,  3-C ) :   1.0972 B(  2-N ,  6-C ) :   0.9504
B(  3-C ,  4-C ) :   1.6194 B(  3-C , 11-H ) :   0.9921 B(  4-C , 12-H ) :   0.9921
B(  5-C ,  7-C ) :   1.4298 B(  5-C ,  8-C ) :   1.4317 B(  6-C ,  9-C ) :   1.4302
B(  6-C , 10-C ) :   1.4314 B(  7-C , 15-C ) :   1.3920 B(  7-C , 19-C ) :   1.0495
B(  8-C , 13-C ) :   1.3905 B(  8-C , 20-C ) :   1.0501 B(  9-C , 16-C ) :   1.3916
B(  9-C , 24-C ) :   1.0495 B( 10-C , 18-C ) :   1.3910 B( 10-C , 26-C ) :   1.0494
B( 13-C , 14-C ) :   1.3811 B( 13-C , 21-H ) :   0.9955 B( 14-C , 15-C ) :   1.3800
B( 14-C , 22-H ) :   0.9944 B( 15-C , 23-H ) :   0.9955 B( 16-C , 17-C ) :   1.3804
B( 16-C , 27-H ) :   0.9955 B( 17-C , 18-C ) :   1.3806 B( 17-C , 28-H ) :   0.9944
B( 18-C , 25-H ) :   0.9955 B( 19-C , 32-H ) :   0.9577 B( 19-C , 33-H ) :   0.9539
B( 19-C , 34-H ) :   0.9522 B( 20-C , 29-H ) :   0.9511 B( 20-C , 30-H ) :   0.9572
B( 20-C , 31-H ) :   0.9557 B( 24-C , 38-H ) :   0.9527 B( 24-C , 39-H ) :   0.9577
B( 24-C , 40-H ) :   0.9534 B( 26-C , 35-H ) :   0.9515 B( 26-C , 36-H ) :   0.9572
B( 26-C , 37-H ) :   0.9553

Dispersion correction           -0.009612408
FINAL SINGLE POINT ENERGY      -844.749568187137

DIPOLE MOMENT
-------------
                                X             Y             Z
Electronic contribution:      0.00082      -0.00220       0.41258
Nuclear contribution   :     -0.01266      -0.00711       1.12317
                        -----------------------------------------
Total Dipole Moment    :     -0.01184      -0.00930       1.53576
                        -----------------------------------------
Magnitude (a.u.)       :      1.53583
Magnitude (Debye)      :      3.90377

Dispersion correction in the Hessian             ... Starting D4

VIBRATIONAL FREQUENCIES
-----------------------

Scaling factor for frequencies =  1.000000000  (already applied!)

   0:         0.00 cm**-1
   1:         0.00 cm**-1
   2:         0.00 cm**-1
   3:         0.00 cm**-1
   4:         0.00 cm**-1
   5:         0.00 cm**-1
   6:        18.92 cm**-1
   7:        22.07 cm**-1
   8:        52.17 cm**-1
   9:        58.63 cm**-1
  10:        84.47 cm**-1
  11:        94.83 cm**-1
  12:       117.57 cm**-1
  13:       132.58 cm**-1
  14:       137.20 cm**-1
  15:       145.00 cm**-1
  16:       151.78 cm**-1
  17:       196.77 cm**-1
  18:       209.62 cm**-1
  19:       236.61 cm**-1
  20:       238.01 cm**-1
  21:       283.23 cm**-1
  22:       306.27 cm**-1
  23:       336.71 cm**-1
  24:       357.85 cm**-1
  25:       360.82 cm**-1
  26:       398.97 cm**-1
  27:       437.12 cm**-1
  28:       484.91 cm**-1
  29:       494.22 cm**-1
  30:       537.34 cm**-1
  31:       537.84 cm**-1
  32:       543.20 cm**-1
  33:       546.98 cm**-1
  34:       579.62 cm**-1
  35:       595.01 cm**-1
  36:       604.24 cm**-1
  37:       628.21 cm**-1
  38:       685.05 cm**-1
  39:       687.33 cm**-1
  40:       751.52 cm**-1
  41:       768.48 cm**-1
  42:       779.69 cm**-1
  43:       786.86 cm**-1
  44:       795.73 cm**-1
  45:       809.49 cm**-1
  46:       810.52 cm**-1
  47:       885.86 cm**-1
  48:       941.94 cm**-1
  49:       942.11 cm**-1
  50:       943.29 cm**-1
  51:       944.50 cm**-1
  52:       963.92 cm**-1
  53:       973.15 cm**-1
  54:      1006.16 cm**-1
  55:      1007.09 cm**-1
  56:      1035.32 cm**-1
  57:      1035.83 cm**-1
  58:      1056.58 cm**-1
  59:      1056.85 cm**-1
  60:      1058.20 cm**-1
  61:      1059.97 cm**-1
  62:      1061.44 cm**-1
  63:      1062.00 cm**-1
  64:      1087.31 cm**-1
  65:      1097.20 cm**-1
  66:      1100.95 cm**-1
  67:      1127.69 cm**-1
  68:      1139.78 cm**-1
  69:      1173.55 cm**-1
  70:      1173.57 cm**-1
  71:      1267.05 cm**-1
  72:      1279.19 cm**-1
  73:      1279.61 cm**-1
  74:      1296.96 cm**-1
  75:      1302.31 cm**-1
  76:      1330.49 cm**-1
  77:      1330.56 cm**-1
  78:      1336.87 cm**-1
  79:      1380.09 cm**-1
  80:      1391.60 cm**-1
  81:      1392.19 cm**-1
  82:      1395.93 cm**-1
  83:      1399.69 cm**-1
  84:      1419.02 cm**-1
  85:      1433.02 cm**-1
  86:      1441.25 cm**-1
  87:      1443.41 cm**-1
  88:      1444.63 cm**-1
  89:      1444.96 cm**-1
  90:      1450.33 cm**-1
  91:      1451.09 cm**-1
  92:      1456.08 cm**-1
  93:      1471.11 cm**-1
  94:      1533.31 cm**-1
  95:      1533.56 cm**-1
  96:      1555.25 cm**-1
  97:      1561.61 cm**-1
  98:      1651.28 cm**-1
  99:      1698.19 cm**-1
 100:      1699.89 cm**-1
 101:      1702.97 cm**-1
 102:      1703.43 cm**-1
 103:      3065.65 cm**-1
 104:      3066.21 cm**-1
 105:      3066.47 cm**-1
 106:      3066.96 cm**-1
 107:      3153.74 cm**-1
 108:      3154.46 cm**-1
 109:      3155.20 cm**-1
 110:      3155.57 cm**-1
 111:      3185.13 cm**-1
 112:      3185.29 cm**-1
 113:      3186.05 cm**-1
 114:      3186.21 cm**-1
 115:      3206.37 cm**-1
 116:      3206.41 cm**-1
 117:      3213.45 cm**-1
 118:      3213.50 cm**-1
 119:      3227.53 cm**-1
 120:      3227.63 cm**-1
 121:      3285.36 cm**-1
 122:      3306.60 cm**-1

IR SPECTRUM
-----------

 Mode   freq       eps      Int      T**2         TX        TY        TZ
       cm**-1   L/(mol*cm) km/mol    a.u.
----------------------------------------------------------------------------
  6:     18.92   0.000002    0.01  0.000037  ( 0.001108  0.004284 -0.004192)
  7:     22.07   0.000001    0.00  0.000012  ( 0.000875  0.001295 -0.003077)
  8:     52.17   0.002550   12.89  0.015254  (-0.002698 -0.123477 -0.000816)
  9:     58.63   0.000193    0.98  0.001028  (-0.000444 -0.027180 -0.017017)
 10:     84.47   0.000066    0.33  0.000245  (-0.001753 -0.012702  0.008955)
 11:     94.83   0.000079    0.40  0.000261  ( 0.016009  0.001248 -0.001685)
 12:    117.57   0.000258    1.30  0.000684  (-0.001486  0.021957 -0.014129)
 13:    132.58   0.000746    3.77  0.001757  ( 0.000093  0.005678 -0.041527)
 14:    137.20   0.000323    1.63  0.000735  ( 0.000545 -0.008316 -0.025790)
 15:    145.00   0.000250    1.26  0.000538  ( 0.008047  0.016597  0.014061)
 16:    151.78   0.000117    0.59  0.000240  ( 0.012767  0.007531 -0.004509)
 17:    196.77   0.002157   10.90  0.003421  (-0.058436 -0.002426 -0.000138)
 18:    209.62   0.000672    3.39  0.001000  ( 0.000498  0.000781 -0.031608)
 19:    236.61   0.000008    0.04  0.000011  (-0.001112 -0.002684 -0.001488)
 20:    238.01   0.000029    0.14  0.000037  (-0.002268 -0.005553  0.001209)
 21:    283.23   0.000829    4.19  0.000913  (-0.029962  0.003873 -0.000489)
 22:    306.27   0.003374   17.05  0.003438  ( 0.004463  0.058457  0.000647)
 23:    336.71   0.001861    9.40  0.001725  ( 0.000352  0.000813 -0.041518)
 24:    357.85   0.000670    3.39  0.000584  ( 0.000086  0.000469 -0.024171)
 25:    360.82   0.000443    2.24  0.000384  ( 0.000537 -0.000146 -0.019576)
 26:    398.97   0.000688    3.47  0.000538  (-0.022931  0.003436 -0.000354)
 27:    437.12   0.000028    0.14  0.000020  ( 0.004045 -0.001958 -0.000110)
 28:    484.91   0.000135    0.68  0.000087  (-0.000892 -0.009282 -0.000071)
 29:    494.22   0.000000    0.00  0.000000  (-0.000173 -0.000041  0.000464)
 30:    537.34   0.000037    0.19  0.000022  (-0.000720  0.004583  0.000451)
 31:    537.84   0.000015    0.07  0.000009  ( 0.000596 -0.002850  0.000155)
 32:    543.20   0.000099    0.50  0.000057  (-0.000030 -0.007558 -0.000080)
 33:    546.98   0.000003    0.01  0.000002  (-0.000168 -0.000320 -0.001227)
 34:    579.62   0.000312    1.57  0.000168  ( 0.000014 -0.000152  0.012950)
 35:    595.01   0.000049    0.25  0.000026  ( 0.000150  0.000127 -0.005050)
 36:    604.24   0.000031    0.16  0.000016  (-0.003730  0.001414  0.000133)
 37:    628.21   0.002085   10.53  0.001035  (-0.032124  0.001880 -0.000087)
 38:    685.05   0.000032    0.16  0.000015  (-0.000043 -0.003085 -0.002273)
 39:    687.33   0.002625   13.26  0.001192  ( 0.001523 -0.034486 -0.000345)
 40:    751.52   0.013867   70.08  0.005758  (-0.003078 -0.075819 -0.000365)
 41:    768.48   0.000063    0.32  0.000026  (-0.000050  0.000205  0.005059)
 42:    779.69   0.001084    5.48  0.000434  (-0.020787  0.001295  0.000021)
 43:    786.86   0.000313    1.58  0.000124  ( 0.000350 -0.000404 -0.011121)
 44:    795.73   0.001386    7.00  0.000544  (-0.023224  0.002037  0.000228)
 45:    809.49   0.018828   95.15  0.007258  ( 0.004465  0.002016 -0.085054)
 46:    810.52   0.003810   19.25  0.001467  (-0.036759 -0.004095 -0.009936)
 47:    885.86   0.000001    0.01  0.000000  (-0.000002  0.000670 -0.000153)
 48:    941.94   0.001175    5.94  0.000389  ( 0.000767 -0.019682  0.001183)
 49:    942.11   0.000608    3.07  0.000202  (-0.000177  0.014093  0.001706)
 50:    943.29   0.000253    1.28  0.000084  ( 0.000752  0.009099 -0.000679)
 51:    944.50   0.000322    1.63  0.000106  ( 0.000618  0.010033  0.002311)
 52:    963.92   0.009066   45.82  0.002935  ( 0.054136 -0.002076  0.000098)
 53:    973.15   0.000840    4.25  0.000269  ( 0.000045 -0.000090  0.016413)
 54:   1006.16   0.001594    8.06  0.000494  (-0.022038  0.000978  0.002791)
 55:   1007.09   0.000732    3.70  0.000227  ( 0.014437 -0.000943  0.004190)
 56:   1035.32   0.000059    0.30  0.000018  (-0.000197  0.001932  0.003759)
 57:   1035.83   0.000334    1.69  0.000101  (-0.000569  0.000058 -0.010020)
 58:   1056.58   0.000642    3.25  0.000190  (-0.002598  0.002605  0.013274)
 59:   1056.85   0.000098    0.50  0.000029  ( 0.001633 -0.004935 -0.001381)
 60:   1058.20   0.001990   10.06  0.000587  ( 0.006925  0.000041  0.023213)
 61:   1059.97   0.002737   13.83  0.000806  (-0.004741 -0.000620  0.027980)
 62:   1061.44   0.000413    2.09  0.000122  (-0.000446  0.011015 -0.000044)
 63:   1062.00   0.000398    2.01  0.000117  ( 0.001515 -0.010540 -0.001915)
 64:   1087.31   0.005664   28.62  0.001626  ( 0.000117  0.000566 -0.040315)
 65:   1097.20   0.000022    0.11  0.000006  ( 0.002376 -0.000656  0.000531)
 66:   1100.95   0.000085    0.43  0.000024  ( 0.000323 -0.000021 -0.004898)
 67:   1127.69   0.007597   38.39  0.002102  ( 0.045831 -0.001284  0.000308)
 68:   1139.78   0.000208    1.05  0.000057  ( 0.000917 -0.000172  0.007488)
 69:   1173.55   0.000524    2.65  0.000139  (-0.000029 -0.011784 -0.000641)
 70:   1173.57   0.000679    3.43  0.000181  (-0.000352  0.013435 -0.000226)
 71:   1267.05   0.009252   46.76  0.002279  (-0.047688  0.002109 -0.000253)
 72:   1279.19   0.000066    0.33  0.000016  ( 0.001316  0.003732 -0.000703)
 73:   1279.61   0.000115    0.58  0.000028  ( 0.001925  0.004898  0.000478)
 74:   1296.96   0.000017    0.09  0.000004  (-0.000374 -0.000115  0.001980)
 75:   1302.31   0.001288    6.51  0.000309  (-0.017548  0.000862 -0.000101)
 76:   1330.49   0.000094    0.47  0.000022  ( 0.001747  0.004327  0.000503)
 77:   1330.56   0.002797   14.13  0.000656  (-0.005435 -0.025026 -0.000148)
 78:   1336.87   0.002245   11.34  0.000524  ( 0.021899 -0.006665  0.000026)
 79:   1380.09   0.001090    5.51  0.000247  ( 0.000248 -0.000270 -0.015697)
 80:   1391.60   0.000046    0.23  0.000010  (-0.000289  0.001686 -0.002716)
 81:   1392.19   0.000085    0.43  0.000019  ( 0.003101  0.002705  0.001417)
 82:   1395.93   0.000062    0.31  0.000014  (-0.003676 -0.000444 -0.000431)
 83:   1399.69   0.001968    9.95  0.000439  (-0.020756  0.002721  0.000784)
 84:   1419.02   0.000571    2.89  0.000126  ( 0.000015 -0.000039 -0.011210)
 85:   1433.02   0.006637   33.54  0.001445  ( 0.037755  0.003645 -0.002569)
 86:   1441.25   0.002201   11.13  0.000477  ( 0.008574 -0.004443  0.019581)
 87:   1443.41   0.005436   27.47  0.001175  ( 0.007737  0.004822  0.033047)
 88:   1444.63   0.006032   30.49  0.001303  (-0.032348  0.013188  0.009098)
 89:   1444.96   0.003033   15.33  0.000655  (-0.001515  0.006695 -0.024655)
 90:   1450.33   0.001155    5.84  0.000248  ( 0.002168  0.008954  0.012790)
 91:   1451.09   0.002269   11.47  0.000488  ( 0.010560  0.017682 -0.007993)
 92:   1456.08   0.000103    0.52  0.000022  (-0.000673 -0.000613  0.004620)
 93:   1471.11   0.002208   11.16  0.000468  ( 0.021640 -0.000196 -0.000165)
 94:   1533.31   0.000997    5.04  0.000203  (-0.000914 -0.014013 -0.002410)
 95:   1533.56   0.009614   48.58  0.001956  (-0.001152 -0.044215 -0.000076)
 96:   1555.25   0.058154  293.89  0.011669  (-0.107901  0.005067 -0.000576)
 97:   1561.61   0.002342   11.83  0.000468  (-0.000787  0.000410 -0.021615)
 98:   1651.28   0.000355    1.80  0.000067  (-0.000112 -0.000208  0.008191)
 99:   1698.19   0.000078    0.40  0.000014  ( 0.003732  0.000683  0.000004)
100:   1699.89   0.000022    0.11  0.000004  (-0.000036  0.000057 -0.001993)
101:   1702.97   0.000065    0.33  0.000012  ( 0.000155 -0.002817 -0.002009)
102:   1703.43   0.005117   25.86  0.000937  (-0.000380 -0.030615 -0.000320)
103:   3065.65   0.010983   55.50  0.001118  ( 0.002961  0.033267 -0.001588)
104:   3066.21   0.001852    9.36  0.000189  (-0.003146  0.011299  0.007138)
105:   3066.47   0.000429    2.17  0.000044  (-0.002023 -0.006230 -0.000884)
106:   3066.96   0.003421   17.29  0.000348  (-0.018309  0.003307 -0.001388)
107:   3153.74   0.002207   11.15  0.000218  ( 0.002512 -0.000906  0.014534)
108:   3154.46   0.002345   11.85  0.000232  (-0.002310 -0.000081  0.015053)
109:   3155.20   0.000607    3.07  0.000060  (-0.004236 -0.002027 -0.006166)
110:   3155.57   0.000952    4.81  0.000094  (-0.003552 -0.002754  0.008600)
111:   3185.13   0.004029   20.36  0.000395  (-0.012924 -0.014578 -0.003899)
112:   3185.29   0.002069   10.46  0.000203  ( 0.008721  0.009995 -0.005174)
113:   3186.05   0.003683   18.61  0.000361  ( 0.014394 -0.012001  0.003081)
114:   3186.21   0.002581   13.04  0.000253  (-0.011883  0.009820  0.003895)
115:   3206.37   0.000001    0.00  0.000000  ( 0.000096 -0.000195  0.000121)
116:   3206.41   0.000000    0.00  0.000000  ( 0.000164  0.000028 -0.000138)
117:   3213.45   0.002900   14.65  0.000282  ( 0.000525  0.016739  0.001054)
118:   3213.50   0.002904   14.68  0.000282  ( 0.000523  0.016776 -0.000565)
119:   3227.53   0.003514   17.76  0.000340  ( 0.017890 -0.000916 -0.004340)
120:   3227.63   0.002528   12.78  0.000244  ( 0.014607 -0.000890  0.005503)
121:   3285.36   0.003149   15.91  0.000299  ( 0.017280 -0.000705  0.000171)
122:   3306.60   0.000682    3.44  0.000064  (-0.000022 -0.000074  0.008020)

--------------------------
THERMOCHEMISTRY AT 298.15K
--------------------------

Temperature         ... 298.15 K
Pressure            ... 1.00 atm
Total Mass          ... 276.38 AMU

Throughout the following assumptions are being made:
  (1) The electronic state is orbitally nondegenerate
  (2) There are no thermally accessible electronically excited states
  (3) Hindered rotations indicated by low frequency modes are not
      treated as such but are treated as vibrations and this may
      cause some error
  (4) All equations used are the standard statistical mechanics
      equations for an ideal gas
  (5) All vibrations are strictly harmonic

freq.      18.92  E(vib)   ...       0.57
freq.      22.07  E(vib)   ...       0.56
freq.      52.17  E(vib)   ...       0.52
freq.      58.63  E(vib)   ...       0.51
freq.      84.47  E(vib)   ...       0.48
freq.      94.83  E(vib)   ...       0.47
freq.     117.57  E(vib)   ...       0.44
freq.     132.58  E(vib)   ...       0.42
freq.     137.20  E(vib)   ...       0.42
freq.     145.00  E(vib)   ...       0.41
freq.     151.78  E(vib)   ...       0.40
freq.     196.77  E(vib)   ...       0.36
freq.     209.62  E(vib)   ...       0.34
freq.     236.61  E(vib)   ...       0.32
freq.     238.01  E(vib)   ...       0.32
freq.     283.23  E(vib)   ...       0.28
freq.     306.27  E(vib)   ...       0.26
freq.     336.71  E(vib)   ...       0.24
freq.     357.85  E(vib)   ...       0.22
freq.     360.82  E(vib)   ...       0.22
freq.     398.97  E(vib)   ...       0.19
freq.     437.12  E(vib)   ...       0.17
freq.     484.91  E(vib)   ...       0.15
freq.     494.22  E(vib)   ...       0.14
freq.     537.34  E(vib)   ...       0.12
freq.     537.84  E(vib)   ...       0.12
freq.     543.20  E(vib)   ...       0.12
freq.     546.98  E(vib)   ...       0.12
freq.     579.62  E(vib)   ...       0.11
freq.     595.01  E(vib)   ...       0.10
freq.     604.24  E(vib)   ...       0.10
freq.     628.21  E(vib)   ...       0.09
freq.     685.05  E(vib)   ...       0.07
freq.     687.33  E(vib)   ...       0.07
freq.     751.52  E(vib)   ...       0.06
freq.     768.48  E(vib)   ...       0.06
freq.     779.69  E(vib)   ...       0.05
freq.     786.86  E(vib)   ...       0.05
freq.     795.73  E(vib)   ...       0.05
freq.     809.49  E(vib)   ...       0.05
freq.     810.52  E(vib)   ...       0.05
freq.     885.86  E(vib)   ...       0.04
freq.     941.94  E(vib)   ...       0.03
freq.     942.11  E(vib)   ...       0.03
freq.     943.29  E(vib)   ...       0.03
freq.     944.50  E(vib)   ...       0.03
freq.     963.92  E(vib)   ...       0.03
freq.     973.15  E(vib)   ...       0.03
freq.    1006.16  E(vib)   ...       0.02
freq.    1007.09  E(vib)   ...       0.02
freq.    1035.32  E(vib)   ...       0.02
freq.    1035.83  E(vib)   ...       0.02
freq.    1056.58  E(vib)   ...       0.02
freq.    1056.85  E(vib)   ...       0.02
freq.    1058.20  E(vib)   ...       0.02
freq.    1059.97  E(vib)   ...       0.02
freq.    1061.44  E(vib)   ...       0.02
freq.    1062.00  E(vib)   ...       0.02
freq.    1087.31  E(vib)   ...       0.02
freq.    1097.20  E(vib)   ...       0.02
freq.    1100.95  E(vib)   ...       0.02
freq.    1127.69  E(vib)   ...       0.01
freq.    1139.78  E(vib)   ...       0.01
freq.    1173.55  E(vib)   ...       0.01
freq.    1173.57  E(vib)   ...       0.01
freq.    1267.05  E(vib)   ...       0.01
freq.    1279.19  E(vib)   ...       0.01
freq.    1279.61  E(vib)   ...       0.01
freq.    1296.96  E(vib)   ...       0.01
freq.    1302.31  E(vib)   ...       0.01
freq.    1330.49  E(vib)   ...       0.01
freq.    1330.56  E(vib)   ...       0.01
freq.    1336.87  E(vib)   ...       0.01
freq.    1380.09  E(vib)   ...       0.01
freq.    1391.60  E(vib)   ...       0.00
freq.    1392.19  E(vib)   ...       0.00
freq.    1395.93  E(vib)   ...       0.00
freq.    1399.69  E(vib)   ...       0.00
freq.    1419.02  E(vib)   ...       0.00
freq.    1433.02  E(vib)   ...       0.00
freq.    1441.25  E(vib)   ...       0.00
freq.    1443.41  E(vib)   ...       0.00
freq.    1444.63  E(vib)   ...       0.00
freq.    1444.96  E(vib)   ...       0.00
freq.    1450.33  E(vib)   ...       0.00
freq.    1451.09  E(vib)   ...       0.00
freq.    1456.08  E(vib)   ...       0.00
freq.    1471.11  E(vib)   ...       0.00
freq.    1533.31  E(vib)   ...       0.00
freq.    1533.56  E(vib)   ...       0.00
freq.    1555.25  E(vib)   ...       0.00
freq.    1561.61  E(vib)   ...       0.00
freq.    1651.28  E(vib)   ...       0.00
freq.    1698.19  E(vib)   ...       0.00
freq.    1699.89  E(vib)   ...       0.00
freq.    1702.97  E(vib)   ...       0.00
freq.    1703.43  E(vib)   ...       0.00
freq.    3065.65  E(vib)   ...       0.00
freq.    3066.21  E(vib)   ...       0.00
freq.    3066.47  E(vib)   ...       0.00
freq.    3066.96  E(vib)   ...       0.00
freq.    3153.74  E(vib)   ...       0.00
freq.    3154.46  E(vib)   ...       0.00
freq.    3155.20  E(vib)   ...       0.00
freq.    3155.57  E(vib)   ...       0.00
freq.    3185.13  E(vib)   ...       0.00
freq.    3185.29  E(vib)   ...       0.00
freq.    3186.05  E(vib)   ...       0.00
freq.    3186.21  E(vib)   ...       0.00
freq.    3206.37  E(vib)   ...       0.00
freq.    3206.41  E(vib)   ...       0.00
freq.    3213.45  E(vib)   ...       0.00
freq.    3213.50  E(vib)   ...       0.00
freq.    3227.53  E(vib)   ...       0.00
freq.    3227.63  E(vib)   ...       0.00
freq.    3285.36  E(vib)   ...       0.00
freq.    3306.60  E(vib)   ...       0.00

------------
INNER ENERGY
------------

The inner energy is: U= E(el) + E(ZPE) + E(vib) + E(rot) + E(trans)
    E(el)   - is the total energy from the electronic structure calculation
              = E(kin-el) + E(nuc-el) + E(el-el) + E(nuc-nuc)
    E(ZPE)  - the the zero temperature vibrational energy from the frequency calculation
    E(vib)  - the the finite temperature correction to E(ZPE) due to population
              of excited vibrational states
    E(rot)  - is the rotational thermal energy
    E(trans)- is the translational thermal energy

Summary of contributions to the inner energy U:
Electronic energy                ...   -844.74956819 Eh
Zero point energy                ...      0.34566278 Eh     216.91 kcal/mol
Thermal vibrational correction   ...      0.01663283 Eh      10.44 kcal/mol
Thermal rotational correction    ...      0.00141627 Eh       0.89 kcal/mol
Thermal translational correction ...      0.00141627 Eh       0.89 kcal/mol
-----------------------------------------------------------------------
Total thermal energy                   -844.38444003 Eh

Summary of corrections to the electronic energy:
(perhaps to be used in another calculation)
Total thermal correction                  0.01946537 Eh      12.21 kcal/mol

Rotational constants in cm-1:     0.023544     0.005967     0.005196

                             ****ORCA TERMINATED NORMALLY****
TOTAL RUN TIME: 0 days 4 hours 56 minutes 35 seconds 940 msec
