                         Program Version 5.0.4 -  RELEASE  -
|  1> # ORCA 5.0.4 - /users/bwb16179/postgrad/2024_03/DFT_Crest_Conformers/Opt/prot/8_prot_aq_1.inp # write input file
|  2> # Basic Mode
|  3> #
|  4> ! Opt Freq wB97X Def2-SVP D4 SlowConv TightSCF Defgrid2 Def2/J RIJCOSX CPCM(Water)
|  5>
|  6>
|  7>
|  8> %maxcore 4500
|  9>
| 10> %geom
| 11> Maxiter 150
| 12> END
| 13>
| 14> * xyzfile 1 1 8_prot_aq_1.xyz
| 15>
| 16>                          ****END OF INPUT****
 Total Charge           Charge          ....    1
 Multiplicity           Mult            ....    1
 Number of Electrons    NEL             ....  148
Dispersion correction           -0.009542758
FINAL SINGLE POINT ENERGY      -845.240495127372
Dispersion correction            ... Starting D4
Dispersion correction           -0.009505799
FINAL SINGLE POINT ENERGY      -845.245601165638
Dispersion correction            ... Starting D4
Dispersion correction           -0.009505016
FINAL SINGLE POINT ENERGY      -845.245754145757
Dispersion correction            ... Starting D4
Dispersion correction           -0.009506771
FINAL SINGLE POINT ENERGY      -845.245793735246
Dispersion correction            ... Starting D4
Dispersion correction           -0.009508229
FINAL SINGLE POINT ENERGY      -845.245799080830
Dispersion correction            ... Starting D4
                    ***********************HURRAY********************

CARTESIAN COORDINATES (ANGSTROEM)
---------------------------------
  N     -1.081100    0.011377    0.519042
  C      0.000034    0.000802   -0.257401
  N      1.081134   -0.005783    0.519138
  H      0.000044   -0.002266   -1.348380
  C      0.679593    0.000931    1.842320
  C     -0.679606    0.011639    1.842262
  C     -2.443270    0.028018    0.043570
  C      2.443261   -0.026976    0.043755
  C     -3.107921   -1.197437   -0.097348
  C     -3.023801    1.268534   -0.250782
  C      3.019826   -1.269652   -0.249336
  C      3.111866    1.196182   -0.098318
  H      1.398479   -0.003966    2.659375
  H     -1.398553    0.020800    2.659229
  C     -4.426271   -1.155821   -0.559603
  C     -2.427597   -2.499529    0.232657
  C     -4.344507    1.258844   -0.709126
  C      4.340539   -1.264663   -0.707733
  C      5.036775   -0.067923   -0.861350
  C      4.430038    1.149875   -0.560656
  C     -5.036934    0.059726   -0.861440
  H     -4.831662    2.209009   -0.946103
  C      2.435972    2.500718    0.231036
  C      2.246178   -2.551881   -0.091194
  H      4.824651   -2.216648   -0.943641
  H      6.069697   -0.084203   -1.220101
  H      4.982721    2.085549   -0.684227
  H     -6.069954    0.072350   -1.220059
  H     -4.975990   -2.093384   -0.682068
  C     -2.254215    2.553340   -0.093869
  H     -2.154449   -2.549062    1.298849
  H     -1.500055   -2.626371   -0.348353
  H     -3.089588   -3.346930    0.010593
  H     -2.917511    3.417916   -0.229160
  H     -1.447359    2.626591   -0.841499
  H     -1.786043    2.628174    0.900121
  H      2.907464   -3.418690   -0.221977
  H      1.441538   -2.625078   -0.841236
  H      1.774601   -2.622636    0.901483
  H      1.504950    2.627200   -0.344400
  H      3.098140    3.346114    0.001957
  H      2.169780    2.554472    1.298793

 Multiplicity           Mult            ....    1
 Number of Electrons    NEL             ....  148
 Basis Dimension        Dim             ....  399

ORBITAL ENERGIES
----------------

  NO   OCC          E(Eh)            E(eV)
   0   2.0000     -14.523625      -395.2079
   1   2.0000     -14.523603      -395.2073
   2   2.0000     -10.396906      -282.9142
   3   2.0000     -10.344139      -281.4783
   4   2.0000     -10.343551      -281.4623
   5   2.0000     -10.333223      -281.1813
   6   2.0000     -10.333179      -281.1801
   7   2.0000     -10.304718      -280.4056
   8   2.0000     -10.304713      -280.4055
   9   2.0000     -10.304580      -280.4019
  10   2.0000     -10.304575      -280.4018
  11   2.0000     -10.288442      -279.9628
  12   2.0000     -10.288442      -279.9627
  13   2.0000     -10.283474      -279.8275
  14   2.0000     -10.283471      -279.8275
  15   2.0000     -10.283461      -279.8272
  16   2.0000     -10.283460      -279.8272
  17   2.0000     -10.278224      -279.6847
  18   2.0000     -10.278204      -279.6842
  19   2.0000     -10.278059      -279.6802
  20   2.0000     -10.278041      -279.6797
  21   2.0000      -1.228263       -33.4227
  22   2.0000      -1.112564       -30.2744
  23   2.0000      -1.016658       -27.6647
  24   2.0000      -0.997195       -27.1351
  25   2.0000      -0.940882       -25.6027
  26   2.0000      -0.925781       -25.1918
  27   2.0000      -0.925345       -25.1799
  28   2.0000      -0.912881       -24.8408
  29   2.0000      -0.890159       -24.2225
  30   2.0000      -0.850267       -23.1369
  31   2.0000      -0.829020       -22.5588
  32   2.0000      -0.811585       -22.0844
  33   2.0000      -0.810493       -22.0546
  34   2.0000      -0.786094       -21.3907
  35   2.0000      -0.785685       -21.3796
  36   2.0000      -0.736491       -20.0409
  37   2.0000      -0.728890       -19.8341
  38   2.0000      -0.715266       -19.4634
  39   2.0000      -0.711884       -19.3713
  40   2.0000      -0.683341       -18.5946
  41   2.0000      -0.648125       -17.6364
  42   2.0000      -0.643335       -17.5060
  43   2.0000      -0.613655       -16.6984
  44   2.0000      -0.612449       -16.6656
  45   2.0000      -0.591671       -16.1002
  46   2.0000      -0.590837       -16.0775
  47   2.0000      -0.582402       -15.8480
  48   2.0000      -0.575597       -15.6628
  49   2.0000      -0.575124       -15.6499
  50   2.0000      -0.547476       -14.8976
  51   2.0000      -0.545681       -14.8487
  52   2.0000      -0.539744       -14.6872
  53   2.0000      -0.538687       -14.6584
  54   2.0000      -0.531323       -14.4580
  55   2.0000      -0.527909       -14.3651
  56   2.0000      -0.524859       -14.2821
  57   2.0000      -0.524837       -14.2815
  58   2.0000      -0.517521       -14.0825
  59   2.0000      -0.515324       -14.0227
  60   2.0000      -0.487977       -13.2785
  61   2.0000      -0.485579       -13.2133
  62   2.0000      -0.477438       -12.9917
  63   2.0000      -0.472342       -12.8531
  64   2.0000      -0.470160       -12.7937
  65   2.0000      -0.461958       -12.5705
  66   2.0000      -0.458542       -12.4776
  67   2.0000      -0.458191       -12.4680
  68   2.0000      -0.432920       -11.7804
  69   2.0000      -0.384631       -10.4663
  70   2.0000      -0.365029        -9.9329
  71   2.0000      -0.361285        -9.8311
  72   2.0000      -0.348264        -9.4767
  73   2.0000      -0.347578        -9.4581
  74   0.0000       0.044078         1.1994
  75   0.0000       0.045489         1.2378
  76   0.0000       0.053463         1.4548
  77   0.0000       0.062221         1.6931
  78   0.0000       0.062603         1.7035

MULLIKEN ATOMIC CHARGES
-----------------------
   0 N :   -0.188951
   1 C :    0.258686
   2 N :   -0.188942
   3 H :    0.146152
   4 C :    0.088088
   5 C :    0.088113
   6 C :    0.011802
   7 C :    0.011874
   8 C :   -0.077041
   9 C :   -0.077559
  10 C :   -0.077622
  11 C :   -0.077079
  12 H :    0.111222
  13 H :    0.111206
  14 C :   -0.088357
  15 C :    0.062467
  16 C :   -0.087394
  17 C :   -0.087390
  18 C :    0.020129
  19 C :   -0.088369
  20 C :    0.020145
  21 H :    0.032533
  22 C :    0.062581
  23 C :    0.058843
  24 H :    0.032539
  25 H :    0.045220
  26 H :    0.032490
  27 H :    0.045216
  28 H :    0.032496
  29 C :    0.058804
  30 H :    0.065633
  31 H :    0.059461
  32 H :    0.049984
  33 H :    0.050727
  34 H :    0.070707
  35 H :    0.057563
  36 H :    0.050790
  37 H :    0.070828
  38 H :    0.057401
  39 H :    0.059181
  40 H :    0.049997
  41 H :    0.065829
Sum of atomic charges:    1.0000000

LOEWDIN ATOMIC CHARGES
----------------------
   0 N :    0.113020
   1 C :    0.146862
   2 N :    0.113007
   3 H :    0.077555
   4 C :    0.031320
   5 C :    0.031313
   6 C :   -0.010074
   7 C :   -0.010067
   8 C :   -0.013725
   9 C :   -0.013754
  10 C :   -0.013770
  11 C :   -0.013728
  12 H :    0.066866
  13 H :    0.066866
  14 C :   -0.036689
  15 C :   -0.051982
  16 C :   -0.036636
  17 C :   -0.036625
  18 C :   -0.009161
  19 C :   -0.036679
  20 C :   -0.009155
  21 H :    0.042732
  22 C :   -0.051966
  23 C :   -0.052513
  24 H :    0.042737
  25 H :    0.045935
  26 H :    0.042705
  27 H :    0.045936
  28 H :    0.042707
  29 C :   -0.052498
  30 H :    0.046377
  31 H :    0.044079
  32 H :    0.044146
  33 H :    0.044475
  34 H :    0.047657
  35 H :    0.042998
  36 H :    0.044504
  37 H :    0.047679
  38 H :    0.042939
  39 H :    0.043979
  40 H :    0.044137
  41 H :    0.046490

  Mayer bond orders larger than 0.100000
B(  0-N ,  1-C ) :   1.3361 B(  0-N ,  5-C ) :   1.1431 B(  0-N ,  6-C ) :   0.8887
B(  1-C ,  2-N ) :   1.3360 B(  1-C ,  3-H ) :   0.9666 B(  2-N ,  4-C ) :   1.1431
B(  2-N ,  7-C ) :   0.8886 B(  4-C ,  5-C ) :   1.5950 B(  4-C , 12-H ) :   0.9884
B(  5-C , 13-H ) :   0.9884 B(  6-C ,  8-C ) :   1.4211 B(  6-C ,  9-C ) :   1.4236
B(  7-C , 10-C ) :   1.4236 B(  7-C , 11-C ) :   1.4211 B(  8-C , 14-C ) :   1.4001
B(  8-C , 15-C ) :   1.0475 B(  9-C , 16-C ) :   1.3975 B(  9-C , 29-C ) :   1.0485
B( 10-C , 17-C ) :   1.3975 B( 10-C , 23-C ) :   1.0486 B( 11-C , 19-C ) :   1.4000
B( 11-C , 22-C ) :   1.0476 B( 14-C , 20-C ) :   1.3804 B( 14-C , 28-H ) :   0.9940
B( 15-C , 30-H ) :   0.9524 B( 15-C , 31-H ) :   0.9553 B( 15-C , 32-H ) :   0.9553
B( 16-C , 20-C ) :   1.3827 B( 16-C , 21-H ) :   0.9942 B( 17-C , 18-C ) :   1.3827
B( 17-C , 24-H ) :   0.9942 B( 18-C , 19-C ) :   1.3804 B( 18-C , 25-H ) :   0.9936
B( 19-C , 26-H ) :   0.9941 B( 20-C , 27-H ) :   0.9936 B( 22-C , 39-H ) :   0.9554
B( 22-C , 40-H ) :   0.9553 B( 22-C , 41-H ) :   0.9523 B( 23-C , 36-H ) :   0.9545
B( 23-C , 37-H ) :   0.9518 B( 23-C , 38-H ) :   0.9564 B( 29-C , 33-H ) :   0.9546
B( 29-C , 34-H ) :   0.9519 B( 29-C , 35-H ) :   0.9564

Dispersion correction           -0.009508651
FINAL SINGLE POINT ENERGY      -845.245799695966

DIPOLE MOMENT
-------------
                                X             Y             Z
Electronic contribution:     -0.00045       0.00471       0.77234
Nuclear contribution   :      0.00078      -0.00195      -0.15739
                        -----------------------------------------
Total Dipole Moment    :      0.00034       0.00276       0.61495
                        -----------------------------------------
Magnitude (a.u.)       :      0.61495
Magnitude (Debye)      :      1.56308

Dispersion correction in the Hessian             ... Starting D4

VIBRATIONAL FREQUENCIES
-----------------------

Scaling factor for frequencies =  1.000000000  (already applied!)

   0:         0.00 cm**-1
   1:         0.00 cm**-1
   2:         0.00 cm**-1
   3:         0.00 cm**-1
   4:         0.00 cm**-1
   5:         0.00 cm**-1
   6:        -8.89 cm**-1 ***imaginary mode***
   7:        12.03 cm**-1
   8:        49.39 cm**-1
   9:        51.74 cm**-1
  10:        83.90 cm**-1
  11:        91.48 cm**-1
  12:        96.96 cm**-1
  13:       101.48 cm**-1
  14:       108.95 cm**-1
  15:       120.15 cm**-1
  16:       134.63 cm**-1
  17:       192.99 cm**-1
  18:       208.97 cm**-1
  19:       231.76 cm**-1
  20:       232.19 cm**-1
  21:       281.45 cm**-1
  22:       301.99 cm**-1
  23:       332.13 cm**-1
  24:       356.01 cm**-1
  25:       357.18 cm**-1
  26:       393.67 cm**-1
  27:       426.78 cm**-1
  28:       480.87 cm**-1
  29:       492.28 cm**-1
  30:       536.13 cm**-1
  31:       536.38 cm**-1
  32:       540.94 cm**-1
  33:       545.56 cm**-1
  34:       568.35 cm**-1
  35:       593.34 cm**-1
  36:       594.23 cm**-1
  37:       620.04 cm**-1
  38:       691.73 cm**-1
  39:       693.07 cm**-1
  40:       765.72 cm**-1
  41:       768.23 cm**-1
  42:       775.00 cm**-1
  43:       776.15 cm**-1
  44:       783.12 cm**-1
  45:       807.10 cm**-1
  46:       807.52 cm**-1
  47:       899.64 cm**-1
  48:       911.42 cm**-1
  49:       939.27 cm**-1
  50:       939.49 cm**-1
  51:       944.41 cm**-1
  52:       945.68 cm**-1
  53:       970.64 cm**-1
  54:       980.20 cm**-1
  55:      1008.46 cm**-1
  56:      1008.76 cm**-1
  57:      1040.23 cm**-1
  58:      1040.26 cm**-1
  59:      1056.06 cm**-1
  60:      1056.17 cm**-1
  61:      1059.71 cm**-1
  62:      1059.80 cm**-1
  63:      1063.50 cm**-1
  64:      1063.94 cm**-1
  65:      1080.75 cm**-1
  66:      1093.18 cm**-1
  67:      1110.18 cm**-1
  68:      1120.21 cm**-1
  69:      1146.33 cm**-1
  70:      1174.85 cm**-1
  71:      1174.86 cm**-1
  72:      1246.62 cm**-1
  73:      1262.61 cm**-1
  74:      1281.09 cm**-1
  75:      1281.34 cm**-1
  76:      1299.64 cm**-1
  77:      1307.66 cm**-1
  78:      1332.46 cm**-1
  79:      1332.92 cm**-1
  80:      1382.29 cm**-1
  81:      1394.78 cm**-1
  82:      1394.96 cm**-1
  83:      1401.83 cm**-1
  84:      1406.59 cm**-1
  85:      1425.17 cm**-1
  86:      1440.14 cm**-1
  87:      1442.16 cm**-1
  88:      1446.73 cm**-1
  89:      1447.53 cm**-1
  90:      1448.23 cm**-1
  91:      1448.68 cm**-1
  92:      1450.55 cm**-1
  93:      1451.08 cm**-1
  94:      1474.33 cm**-1
  95:      1527.17 cm**-1
  96:      1535.71 cm**-1
  97:      1536.13 cm**-1
  98:      1550.30 cm**-1
  99:      1644.95 cm**-1
 100:      1645.77 cm**-1
 101:      1694.98 cm**-1
 102:      1695.62 cm**-1
 103:      1707.58 cm**-1
 104:      1708.40 cm**-1
 105:      3067.45 cm**-1
 106:      3067.98 cm**-1
 107:      3068.39 cm**-1
 108:      3069.35 cm**-1
 109:      3155.98 cm**-1
 110:      3156.05 cm**-1
 111:      3156.86 cm**-1
 112:      3157.74 cm**-1
 113:      3192.16 cm**-1
 114:      3192.23 cm**-1
 115:      3192.74 cm**-1
 116:      3192.98 cm**-1
 117:      3214.48 cm**-1
 118:      3214.49 cm**-1
 119:      3221.97 cm**-1
 120:      3221.98 cm**-1
 121:      3233.76 cm**-1
 122:      3233.78 cm**-1
 123:      3296.02 cm**-1
 124:      3300.96 cm**-1
 125:      3319.31 cm**-1

IR SPECTRUM
-----------

 Mode   freq       eps      Int      T**2         TX        TY        TZ
       cm**-1   L/(mol*cm) km/mol    a.u.
----------------------------------------------------------------------------
  7:     12.03   0.000030    0.15  0.000784  ( 0.000287  0.024986  0.012623)
  8:     49.39   0.000015    0.08  0.000094  ( 0.006183  0.006604  0.003557)
  9:     51.74   0.000116    0.59  0.000701  (-0.001495 -0.001262  0.026402)
 10:     83.90   0.000046    0.23  0.000170  ( 0.000817 -0.000170 -0.013029)
 11:     91.48   0.000015    0.08  0.000052  (-0.007002  0.000717  0.001625)
 12:     96.96   0.000038    0.19  0.000121  (-0.003888 -0.006084  0.008302)
 13:    101.48   0.000050    0.25  0.000154  ( 0.005578  0.006211 -0.009169)
 14:    108.95   0.000371    1.87  0.001063  (-0.001685 -0.003381 -0.032378)
 15:    120.15   0.000036    0.18  0.000094  ( 0.007717 -0.005538  0.001844)
 16:    134.63   0.000092    0.46  0.000213  (-0.000488 -0.000076  0.014574)
 17:    192.99   0.000125    0.63  0.000202  (-0.013760  0.003518 -0.000088)
 18:    208.97   0.000127    0.64  0.000189  ( 0.000528 -0.000124 -0.013743)
 19:    231.76   0.000001    0.00  0.000001  ( 0.000032 -0.000046 -0.000942)
 20:    232.19   0.000006    0.03  0.000008  ( 0.000078  0.002776 -0.000131)
 21:    281.45   0.000026    0.13  0.000029  (-0.005277  0.000805  0.000352)
 22:    301.99   0.000002    0.01  0.000002  ( 0.000258 -0.001306 -0.000149)
 23:    332.13   0.003478   17.58  0.003268  (-0.000085  0.000001 -0.057169)
 24:    356.01   0.002064   10.43  0.001810  (-0.000185  0.000059  0.042538)
 25:    357.18   0.000129    0.65  0.000113  (-0.000097  0.000048  0.010626)
 26:    393.67   0.000034    0.17  0.000027  ( 0.004354 -0.002835 -0.000056)
 27:    426.78   0.001720    8.69  0.001258  ( 0.035423 -0.001772  0.000036)
 28:    480.87   0.000329    1.66  0.000213  ( 0.000914  0.014576  0.000003)
 29:    492.28   0.000000    0.00  0.000000  ( 0.000015 -0.000141  0.000379)
 30:    536.13   0.000072    0.36  0.000042  ( 0.001081  0.006368  0.000005)
 31:    536.38   0.000000    0.00  0.000000  ( 0.000027 -0.000326  0.000242)
 32:    540.94   0.001123    5.68  0.000648  (-0.000894 -0.025441  0.000038)
 33:    545.56   0.000002    0.01  0.000001  (-0.000008  0.000079 -0.001154)
 34:    568.35   0.000785    3.97  0.000431  ( 0.000065  0.000037  0.020757)
 35:    593.34   0.000012    0.06  0.000006  ( 0.000512  0.000004  0.002456)
 36:    594.23   0.000356    1.80  0.000187  ( 0.013676  0.000249 -0.000060)
 37:    620.04   0.000127    0.64  0.000064  ( 0.007983 -0.000329 -0.000001)
 38:    691.73   0.013609   68.77  0.006139  (-0.002654 -0.078310  0.000201)
 39:    693.07   0.000014    0.07  0.000006  ( 0.000129  0.000570  0.002449)
 40:    765.72   0.008666   43.79  0.003532  (-0.000187  0.059427 -0.000208)
 41:    768.23   0.000027    0.13  0.000011  (-0.000091 -0.000339  0.003270)
 42:    775.00   0.000238    1.20  0.000096  (-0.000189 -0.000067 -0.009786)
 43:    776.15   0.000197    0.99  0.000079  ( 0.008274 -0.003240 -0.000454)
 44:    783.12   0.000121    0.61  0.000048  (-0.006325 -0.002858 -0.000108)
 45:    807.10   0.016561   83.69  0.006403  ( 0.008026 -0.002133  0.079588)
 46:    807.52   0.003509   17.73  0.001356  ( 0.028432 -0.007450 -0.022186)
 47:    899.64   0.005509   27.84  0.001911  (-0.000029 -0.043714  0.000123)
 48:    911.42   0.000003    0.01  0.000001  ( 0.000080 -0.000032  0.000993)
 49:    939.27   0.000027    0.14  0.000009  ( 0.000541  0.002472 -0.001636)
 50:    939.49   0.000040    0.20  0.000013  (-0.000586 -0.003381 -0.001220)
 51:    944.41   0.000021    0.11  0.000007  ( 0.000175  0.000829  0.002512)
 52:    945.68   0.000964    4.87  0.000318  ( 0.001342  0.017784 -0.000137)
 53:    970.64   0.003748   18.94  0.001205  (-0.034693  0.001229  0.000015)
 54:    980.20   0.000033    0.17  0.000011  (-0.000024 -0.000020 -0.003243)
 55:   1008.46   0.001534    7.75  0.000475  (-0.021660  0.001085  0.002092)
 56:   1008.76   0.000339    1.71  0.000105  ( 0.005128 -0.000153  0.008862)
 57:   1040.23   0.000118    0.60  0.000035  ( 0.003443  0.004627  0.001454)
 58:   1040.26   0.000962    4.86  0.000288  ( 0.000533  0.000283 -0.016974)
 59:   1056.06   0.001315    6.64  0.000388  ( 0.001473  0.000850 -0.019637)
 60:   1056.17   0.000376    1.90  0.000111  (-0.002351 -0.001946 -0.010082)
 61:   1059.71   0.001512    7.64  0.000445  ( 0.008888  0.007886 -0.017435)
 62:   1059.80   0.002202   11.13  0.000648  ( 0.006281  0.005913  0.023957)
 63:   1063.50   0.000535    2.70  0.000157  ( 0.000205  0.000367 -0.012517)
 64:   1063.94   0.000713    3.60  0.000209  ( 0.000839  0.014429  0.000345)
 65:   1080.75   0.007515   37.98  0.002170  (-0.046581  0.000380  0.000037)
 66:   1093.18   0.004470   22.59  0.001276  ( 0.000033  0.000181  0.035721)
 67:   1110.18   0.000055    0.28  0.000016  ( 0.000052 -0.000036 -0.003947)
 68:   1120.21   0.010380   52.46  0.002892  ( 0.053770 -0.000598  0.000036)
 69:   1146.33   0.000153    0.78  0.000042  (-0.000019  0.000016  0.006463)
 70:   1174.85   0.000059    0.30  0.000016  (-0.000153 -0.003950 -0.000416)
 71:   1174.86   0.001852    9.36  0.000492  (-0.000869 -0.022164  0.000094)
 72:   1246.62   0.012528   63.31  0.003136  (-0.055994  0.000952 -0.000008)
 73:   1262.61   0.008174   41.31  0.002020  ( 0.044944 -0.000412  0.000005)
 74:   1281.09   0.000001    0.01  0.000000  ( 0.000054  0.000037  0.000544)
 75:   1281.34   0.000047    0.24  0.000012  ( 0.000551 -0.003356  0.000057)
 76:   1299.64   0.000015    0.07  0.000003  (-0.000100  0.000021  0.001868)
 77:   1307.66   0.001669    8.43  0.000398  (-0.019952 -0.000409 -0.000013)
 78:   1332.46   0.000025    0.13  0.000006  (-0.000087  0.000778 -0.002284)
 79:   1332.92   0.008420   42.55  0.001971  (-0.001692 -0.044366  0.000002)
 80:   1382.29   0.000788    3.98  0.000178  ( 0.000088 -0.000118 -0.013334)
 81:   1394.78   0.000110    0.55  0.000025  (-0.004869 -0.000882 -0.000114)
 82:   1394.96   0.000011    0.05  0.000002  (-0.000779 -0.000063  0.001324)
 83:   1401.83   0.001398    7.06  0.000311  ( 0.017618  0.000858 -0.000046)
 84:   1406.59   0.000042    0.21  0.000009  ( 0.000208  0.000102  0.003041)
 85:   1425.17   0.000407    2.06  0.000089  ( 0.009009 -0.002805  0.000189)
 86:   1440.14   0.002930   14.81  0.000635  ( 0.002024 -0.000359  0.025114)
 87:   1442.16   0.001809    9.14  0.000391  (-0.019554  0.001496  0.002615)
 88:   1446.73   0.002270   11.47  0.000490  (-0.000915  0.007575  0.020768)
 89:   1447.53   0.003937   19.90  0.000849  ( 0.010968 -0.023534  0.013214)
 90:   1448.23   0.001256    6.35  0.000271  ( 0.007553  0.003208  0.014260)
 91:   1448.68   0.002395   12.11  0.000516  (-0.013983  0.006180  0.016801)
 92:   1450.55   0.005021   25.38  0.001080  ( 0.004420  0.004246  0.032291)
 93:   1451.08   0.003649   18.44  0.000785  ( 0.020920  0.017108 -0.007385)
 94:   1474.33   0.000407    2.06  0.000086  (-0.000223  0.000201  0.009280)
 95:   1527.17   0.012633   63.84  0.002582  ( 0.050767 -0.002056 -0.000027)
 96:   1535.71   0.000049    0.25  0.000010  ( 0.000093  0.000035  0.003157)
 97:   1536.13   0.011522   58.23  0.002341  (-0.003889 -0.048223  0.000053)
 98:   1550.30   0.003199   16.16  0.000644  ( 0.000075 -0.000137 -0.025374)
 99:   1644.95   0.000947    4.79  0.000180  (-0.000185 -0.000075 -0.013404)
100:   1645.77   0.055482  280.38  0.010520  (-0.102566  0.000679  0.000020)
101:   1694.98   0.002672   13.51  0.000492  ( 0.022176 -0.000471 -0.000009)
102:   1695.62   0.000257    1.30  0.000047  ( 0.000095  0.000064  0.006880)
103:   1707.58   0.000032    0.16  0.000006  ( 0.000024  0.000205  0.002427)
104:   1708.40   0.006361   32.14  0.001162  (-0.000944 -0.034073  0.000025)
105:   3067.45   0.005970   30.17  0.000607  ( 0.003468  0.024392  0.000565)
106:   3067.98   0.001417    7.16  0.000144  (-0.007475  0.007894 -0.005094)
107:   3068.39   0.001921    9.71  0.000195  ( 0.010888  0.008746  0.000583)
108:   3069.35   0.002812   14.21  0.000286  (-0.015129  0.006948  0.002953)
109:   3155.98   0.000918    4.64  0.000091  ( 0.000101  0.002698  0.009134)
110:   3156.05   0.002334   11.79  0.000231  ( 0.004508 -0.000503 -0.014497)
111:   3156.86   0.000788    3.98  0.000078  (-0.003194  0.002857 -0.007717)
112:   3157.74   0.000668    3.37  0.000066  (-0.005047  0.001833 -0.006097)
113:   3192.16   0.003008   15.20  0.000294  ( 0.009557 -0.014059  0.002247)
114:   3192.23   0.000807    4.08  0.000079  (-0.004841  0.005788  0.004684)
115:   3192.74   0.002146   10.85  0.000210  (-0.010956 -0.009133 -0.002510)
116:   3192.98   0.001709    8.64  0.000167  ( 0.010087  0.007737 -0.002332)
117:   3214.48   0.000071    0.36  0.000007  ( 0.002588  0.000453 -0.000039)
118:   3214.49   0.000013    0.06  0.000001  ( 0.000082  0.000033  0.001100)
119:   3221.97   0.001355    6.85  0.000131  (-0.000207 -0.011431 -0.000701)
120:   3221.98   0.001439    7.27  0.000139  ( 0.000164  0.011784 -0.000701)
121:   3233.76   0.002791   14.10  0.000269  (-0.016407 -0.000028  0.000395)
122:   3233.78   0.000304    1.54  0.000029  (-0.001226 -0.000041 -0.005275)
123:   3296.02   0.015179   76.71  0.001437  ( 0.000002  0.000106  0.037910)
124:   3300.96   0.007631   38.56  0.000721  (-0.026855  0.000479 -0.000001)
125:   3319.31   0.004050   20.47  0.000381  (-0.000000  0.000047  0.019513)

--------------------------
THERMOCHEMISTRY AT 298.15K
--------------------------

Temperature         ... 298.15 K
Pressure            ... 1.00 atm
Total Mass          ... 277.39 AMU

Throughout the following assumptions are being made:
  (1) The electronic state is orbitally nondegenerate
  (2) There are no thermally accessible electronically excited states
  (3) Hindered rotations indicated by low frequency modes are not
      treated as such but are treated as vibrations and this may
      cause some error
  (4) All equations used are the standard statistical mechanics
      equations for an ideal gas
  (5) All vibrations are strictly harmonic

freq.      12.03  E(vib)   ...       0.58
freq.      49.39  E(vib)   ...       0.52
freq.      51.74  E(vib)   ...       0.52
freq.      83.90  E(vib)   ...       0.48
freq.      91.48  E(vib)   ...       0.47
freq.      96.96  E(vib)   ...       0.46
freq.     101.48  E(vib)   ...       0.46
freq.     108.95  E(vib)   ...       0.45
freq.     120.15  E(vib)   ...       0.44
freq.     134.63  E(vib)   ...       0.42
freq.     192.99  E(vib)   ...       0.36
freq.     208.97  E(vib)   ...       0.34
freq.     231.76  E(vib)   ...       0.32
freq.     232.19  E(vib)   ...       0.32
freq.     281.45  E(vib)   ...       0.28
freq.     301.99  E(vib)   ...       0.26
freq.     332.13  E(vib)   ...       0.24
freq.     356.01  E(vib)   ...       0.22
freq.     357.18  E(vib)   ...       0.22
freq.     393.67  E(vib)   ...       0.20
freq.     426.78  E(vib)   ...       0.18
freq.     480.87  E(vib)   ...       0.15
freq.     492.28  E(vib)   ...       0.14
freq.     536.13  E(vib)   ...       0.12
freq.     536.38  E(vib)   ...       0.12
freq.     540.94  E(vib)   ...       0.12
freq.     545.56  E(vib)   ...       0.12
freq.     568.35  E(vib)   ...       0.11
freq.     593.34  E(vib)   ...       0.10
freq.     594.23  E(vib)   ...       0.10
freq.     620.04  E(vib)   ...       0.09
freq.     691.73  E(vib)   ...       0.07
freq.     693.07  E(vib)   ...       0.07
freq.     765.72  E(vib)   ...       0.06
freq.     768.23  E(vib)   ...       0.06
freq.     775.00  E(vib)   ...       0.05
freq.     776.15  E(vib)   ...       0.05
freq.     783.12  E(vib)   ...       0.05
freq.     807.10  E(vib)   ...       0.05
freq.     807.52  E(vib)   ...       0.05
freq.     899.64  E(vib)   ...       0.03
freq.     911.42  E(vib)   ...       0.03
freq.     939.27  E(vib)   ...       0.03
freq.     939.49  E(vib)   ...       0.03
freq.     944.41  E(vib)   ...       0.03
freq.     945.68  E(vib)   ...       0.03
freq.     970.64  E(vib)   ...       0.03
freq.     980.20  E(vib)   ...       0.02
freq.    1008.46  E(vib)   ...       0.02
freq.    1008.76  E(vib)   ...       0.02
freq.    1040.23  E(vib)   ...       0.02
freq.    1040.26  E(vib)   ...       0.02
freq.    1056.06  E(vib)   ...       0.02
freq.    1056.17  E(vib)   ...       0.02
freq.    1059.71  E(vib)   ...       0.02
freq.    1059.80  E(vib)   ...       0.02
freq.    1063.50  E(vib)   ...       0.02
freq.    1063.94  E(vib)   ...       0.02
freq.    1080.75  E(vib)   ...       0.02
freq.    1093.18  E(vib)   ...       0.02
freq.    1110.18  E(vib)   ...       0.02
freq.    1120.21  E(vib)   ...       0.01
freq.    1146.33  E(vib)   ...       0.01
freq.    1174.85  E(vib)   ...       0.01
freq.    1174.86  E(vib)   ...       0.01
freq.    1246.62  E(vib)   ...       0.01
freq.    1262.61  E(vib)   ...       0.01
freq.    1281.09  E(vib)   ...       0.01
freq.    1281.34  E(vib)   ...       0.01
freq.    1299.64  E(vib)   ...       0.01
freq.    1307.66  E(vib)   ...       0.01
freq.    1332.46  E(vib)   ...       0.01
freq.    1332.92  E(vib)   ...       0.01
freq.    1382.29  E(vib)   ...       0.01
freq.    1394.78  E(vib)   ...       0.00
freq.    1394.96  E(vib)   ...       0.00
freq.    1401.83  E(vib)   ...       0.00
freq.    1406.59  E(vib)   ...       0.00
freq.    1425.17  E(vib)   ...       0.00
freq.    1440.14  E(vib)   ...       0.00
freq.    1442.16  E(vib)   ...       0.00
freq.    1446.73  E(vib)   ...       0.00
freq.    1447.53  E(vib)   ...       0.00
freq.    1448.23  E(vib)   ...       0.00
freq.    1448.68  E(vib)   ...       0.00
freq.    1450.55  E(vib)   ...       0.00
freq.    1451.08  E(vib)   ...       0.00
freq.    1474.33  E(vib)   ...       0.00
freq.    1527.17  E(vib)   ...       0.00
freq.    1535.71  E(vib)   ...       0.00
freq.    1536.13  E(vib)   ...       0.00
freq.    1550.30  E(vib)   ...       0.00
freq.    1644.95  E(vib)   ...       0.00
freq.    1645.77  E(vib)   ...       0.00
freq.    1694.98  E(vib)   ...       0.00
freq.    1695.62  E(vib)   ...       0.00
freq.    1707.58  E(vib)   ...       0.00
freq.    1708.40  E(vib)   ...       0.00
freq.    3067.45  E(vib)   ...       0.00
freq.    3067.98  E(vib)   ...       0.00
freq.    3068.39  E(vib)   ...       0.00
freq.    3069.35  E(vib)   ...       0.00
freq.    3155.98  E(vib)   ...       0.00
freq.    3156.05  E(vib)   ...       0.00
freq.    3156.86  E(vib)   ...       0.00
freq.    3157.74  E(vib)   ...       0.00
freq.    3192.16  E(vib)   ...       0.00
freq.    3192.23  E(vib)   ...       0.00
freq.    3192.74  E(vib)   ...       0.00
freq.    3192.98  E(vib)   ...       0.00
freq.    3214.48  E(vib)   ...       0.00
freq.    3214.49  E(vib)   ...       0.00
freq.    3221.97  E(vib)   ...       0.00
freq.    3221.98  E(vib)   ...       0.00
freq.    3233.76  E(vib)   ...       0.00
freq.    3233.78  E(vib)   ...       0.00
freq.    3296.02  E(vib)   ...       0.00
freq.    3300.96  E(vib)   ...       0.00
freq.    3319.31  E(vib)   ...       0.00

------------
INNER ENERGY
------------

The inner energy is: U= E(el) + E(ZPE) + E(vib) + E(rot) + E(trans)
    E(el)   - is the total energy from the electronic structure calculation
              = E(kin-el) + E(nuc-el) + E(el-el) + E(nuc-nuc)
    E(ZPE)  - the the zero temperature vibrational energy from the frequency calculation
    E(vib)  - the the finite temperature correction to E(ZPE) due to population
              of excited vibrational states
    E(rot)  - is the rotational thermal energy
    E(trans)- is the translational thermal energy

Summary of contributions to the inner energy U:
Electronic energy                ...   -845.24579970 Eh
Zero point energy                ...      0.35858869 Eh     225.02 kcal/mol
Thermal vibrational correction   ...      0.01613756 Eh      10.13 kcal/mol
Thermal rotational correction    ...      0.00141627 Eh       0.89 kcal/mol
Thermal translational correction ...      0.00141627 Eh       0.89 kcal/mol
-----------------------------------------------------------------------
Total thermal energy                   -844.86824090 Eh

Summary of corrections to the electronic energy:

Rotational constants in cm-1:     0.023129     0.005954     0.005200

                             ****ORCA TERMINATED NORMALLY****
TOTAL RUN TIME: 0 days 3 hours 35 minutes 19 seconds 294 msec
