                         Program Version 5.0.4 -  RELEASE  -
|  1> # ORCA 5.0.4 - /users/bwb16179/postgrad/2024_03/DFT_Crest_Conformers/Opt/prot/8_prot_aq_3.inp # write input file
|  2> # Basic Mode
|  3> #
|  4> ! Opt Freq wB97X Def2-SVP D4 SlowConv TightSCF Defgrid2 Def2/J RIJCOSX CPCM(Water)
|  5>
|  6>
|  7>
|  8> %maxcore 4500
|  9>
| 10> %geom
| 11> Maxiter 150
| 12> END
| 13>
| 14> * xyzfile 1 1 8_prot_aq_3.xyz
| 15>
| 16>                          ****END OF INPUT****
 Total Charge           Charge          ....    1
 Multiplicity           Mult            ....    1
 Number of Electrons    NEL             ....  148
Dispersion correction           -0.009505239
FINAL SINGLE POINT ENERGY      -845.245823107674
Dispersion correction            ... Starting D4
                    ***********************HURRAY********************

CARTESIAN COORDINATES (ANGSTROEM)
---------------------------------
  N     -1.081024    0.015990    0.515072
  C      0.000017   -0.000542   -0.261710
  N      1.081067   -0.015529    0.515088
  H      0.000003   -0.001636   -1.352697
  C      0.679597   -0.008499    1.838165
  C     -0.679532    0.011548    1.838156
  C     -2.443273    0.030479    0.040058
  C      2.443313   -0.030559    0.040097
  C     -3.046355   -1.194759   -0.273225
  C     -3.087346    1.269122   -0.079567
  C      3.087886   -1.269192   -0.076790
  C      3.045863    1.194247   -0.275910
  H      1.399165   -0.017533    2.654599
  H     -1.399084    0.022320    2.654583
  C     -4.366887   -1.154713   -0.730138
  C     -2.301161   -2.495923   -0.132667
  C     -4.406724    1.258016   -0.540535
  C      4.407277   -1.258553   -0.537734
  C      5.038750   -0.059566   -0.861764
  C      4.366415    1.153751   -0.732716
  C     -5.038709    0.058586   -0.861916
  H     -4.939929    2.207033   -0.646817
  C      2.300049    2.495369   -0.138232
  C      2.388202   -2.553327    0.281718
  H      4.940883   -2.207576   -0.641926
  H      6.072073   -0.071017   -1.219575
  H      4.869868    2.090802   -0.987220
  H     -6.072029    0.069669   -1.219745
  H     -4.870748   -2.092129   -0.982481
  C     -2.387190    2.553775    0.276173
  H     -1.845549   -2.595931    0.865012
  H     -1.488068   -2.571681   -0.873249
  H     -2.978877   -3.345584   -0.289394
  H     -2.166736    2.600470    1.354762
  H     -3.014502    3.417870    0.020117
  H     -1.428882    2.652908   -0.258111
  H      1.429749   -2.653742   -0.252067
  H      2.168087   -2.597929    1.360465
  H      3.015657   -3.417760    0.027161
  H      1.486774    2.569014   -0.878830
  H      2.977301    3.345014   -0.297025
  H      1.844565    2.597404    0.859305

 Multiplicity           Mult            ....    1
 Number of Electrons    NEL             ....  148
 Basis Dimension        Dim             ....  399

ORBITAL ENERGIES
----------------

  NO   OCC          E(Eh)            E(eV)
   0   2.0000     -14.523689      -395.2097
   1   2.0000     -14.523669      -395.2091
   2   2.0000     -10.396935      -282.9150
   3   2.0000     -10.344163      -281.4790
   4   2.0000     -10.343576      -281.4630
   5   2.0000     -10.333267      -281.1825
   6   2.0000     -10.333223      -281.1813
   7   2.0000     -10.304728      -280.4059
   8   2.0000     -10.304725      -280.4058
   9   2.0000     -10.304563      -280.4014
  10   2.0000     -10.304559      -280.4013
  11   2.0000     -10.288443      -279.9628
  12   2.0000     -10.288442      -279.9627
  13   2.0000     -10.283465      -279.8273
  14   2.0000     -10.283461      -279.8272
  15   2.0000     -10.283442      -279.8267
  16   2.0000     -10.283441      -279.8266
  17   2.0000     -10.278221      -279.6846
  18   2.0000     -10.278216      -279.6845
  19   2.0000     -10.278010      -279.6789
  20   2.0000     -10.278006      -279.6788
  21   2.0000      -1.228273       -33.4230
  22   2.0000      -1.112598       -30.2753
  23   2.0000      -1.016641       -27.6642
  24   2.0000      -0.997192       -27.1350
  25   2.0000      -0.940913       -25.6035
  26   2.0000      -0.925772       -25.1915
  27   2.0000      -0.925333       -25.1796
  28   2.0000      -0.912885       -24.8409
  29   2.0000      -0.890152       -24.2223
  30   2.0000      -0.850288       -23.1375
  31   2.0000      -0.829034       -22.5592
  32   2.0000      -0.811562       -22.0837
  33   2.0000      -0.810453       -22.0536
  34   2.0000      -0.786109       -21.3911
  35   2.0000      -0.785719       -21.3805
  36   2.0000      -0.736479       -20.0406
  37   2.0000      -0.728904       -19.8345
  38   2.0000      -0.715186       -19.4612
  39   2.0000      -0.711832       -19.3699
  40   2.0000      -0.683360       -18.5952
  41   2.0000      -0.648130       -17.6365
  42   2.0000      -0.643395       -17.5077
  43   2.0000      -0.613760       -16.7013
  44   2.0000      -0.612360       -16.6631
  45   2.0000      -0.591719       -16.1015
  46   2.0000      -0.590835       -16.0774
  47   2.0000      -0.582447       -15.8492
  48   2.0000      -0.575581       -15.6624
  49   2.0000      -0.575248       -15.6533
  50   2.0000      -0.547362       -14.8945
  51   2.0000      -0.545760       -14.8509
  52   2.0000      -0.539829       -14.6895
  53   2.0000      -0.538675       -14.6581
  54   2.0000      -0.531237       -14.4557
  55   2.0000      -0.527957       -14.3664
  56   2.0000      -0.524819       -14.2810
  57   2.0000      -0.524768       -14.2797
  58   2.0000      -0.517544       -14.0831
  59   2.0000      -0.515261       -14.0210
  60   2.0000      -0.487992       -13.2790
  61   2.0000      -0.485471       -13.2103
  62   2.0000      -0.477469       -12.9926
  63   2.0000      -0.472289       -12.8516
  64   2.0000      -0.470207       -12.7950
  65   2.0000      -0.462004       -12.5718
  66   2.0000      -0.458489       -12.4761
  67   2.0000      -0.458158       -12.4671
  68   2.0000      -0.433030       -11.7833
  69   2.0000      -0.384654       -10.4670
  70   2.0000      -0.364924        -9.9301
  71   2.0000      -0.361284        -9.8310
  72   2.0000      -0.348228        -9.4758
  73   2.0000      -0.347607        -9.4589
  74   0.0000       0.043278         1.1776
  75   0.0000       0.045553         1.2395
  76   0.0000       0.054018         1.4699
  77   0.0000       0.062382         1.6975
  78   0.0000       0.062533         1.7016

MULLIKEN ATOMIC CHARGES
-----------------------
   0 N :   -0.188874
   1 C :    0.258086
   2 N :   -0.188875
   3 H :    0.146373
   4 C :    0.088143
   5 C :    0.088129
   6 C :    0.012406
   7 C :    0.012414
   8 C :   -0.078130
   9 C :   -0.077383
  10 C :   -0.077394
  11 C :   -0.078152
  12 H :    0.111277
  13 H :    0.111278
  14 C :   -0.087402
  15 C :    0.058784
  16 C :   -0.088227
  17 C :   -0.088221
  18 C :    0.019966
  19 C :   -0.087404
  20 C :    0.019981
  21 H :    0.032503
  22 C :    0.058797
  23 C :    0.063273
  24 H :    0.032507
  25 H :    0.045249
  26 H :    0.032512
  27 H :    0.045247
  28 H :    0.032510
  29 C :    0.063273
  30 H :    0.058013
  31 H :    0.070653
  32 H :    0.050563
  33 H :    0.067295
  34 H :    0.050284
  35 H :    0.056855
  36 H :    0.056841
  37 H :    0.067310
  38 H :    0.050292
  39 H :    0.070660
  40 H :    0.050566
  41 H :    0.058023
Sum of atomic charges:    1.0000000

LOEWDIN ATOMIC CHARGES
----------------------
   0 N :    0.113047
   1 C :    0.146632
   2 N :    0.113046
   3 H :    0.077553
   4 C :    0.031424
   5 C :    0.031419
   6 C :   -0.010093
   7 C :   -0.010095
   8 C :   -0.013830
   9 C :   -0.013649
  10 C :   -0.013653
  11 C :   -0.013833
  12 H :    0.066864
  13 H :    0.066864
  14 C :   -0.036680
  15 C :   -0.052544
  16 C :   -0.036634
  17 C :   -0.036631
  18 C :   -0.009156
  19 C :   -0.036680
  20 C :   -0.009153
  21 H :    0.042740
  22 C :   -0.052546
  23 C :   -0.051942
  24 H :    0.042742
  25 H :    0.045941
  26 H :    0.042730
  27 H :    0.045941
  28 H :    0.042728
  29 C :   -0.051943
  30 H :    0.043289
  31 H :    0.047372
  32 H :    0.044459
  33 H :    0.047298
  34 H :    0.044216
  35 H :    0.043058
  36 H :    0.043054
  37 H :    0.047306
  38 H :    0.044217
  39 H :    0.047364
  40 H :    0.044461
  41 H :    0.043297

  Mayer bond orders larger than 0.100000
B(  0-N ,  1-C ) :   1.3358 B(  0-N ,  5-C ) :   1.1431 B(  0-N ,  6-C ) :   0.8884
B(  1-C ,  2-N ) :   1.3358 B(  1-C ,  3-H ) :   0.9667 B(  2-N ,  4-C ) :   1.1431
B(  2-N ,  7-C ) :   0.8884 B(  4-C ,  5-C ) :   1.5953 B(  4-C , 12-H ) :   0.9883
B(  5-C , 13-H ) :   0.9883 B(  6-C ,  8-C ) :   1.4232 B(  6-C ,  9-C ) :   1.4215
B(  7-C , 10-C ) :   1.4215 B(  7-C , 11-C ) :   1.4231 B(  8-C , 14-C ) :   1.3980
B(  8-C , 15-C ) :   1.0482 B(  9-C , 16-C ) :   1.3995 B(  9-C , 29-C ) :   1.0483
B( 10-C , 17-C ) :   1.3995 B( 10-C , 23-C ) :   1.0483 B( 11-C , 19-C ) :   1.3980
B( 11-C , 22-C ) :   1.0482 B( 14-C , 20-C ) :   1.3823 B( 14-C , 28-H ) :   0.9942
B( 15-C , 30-H ) :   0.9567 B( 15-C , 31-H ) :   0.9517 B( 15-C , 32-H ) :   0.9545
B( 16-C , 20-C ) :   1.3807 B( 16-C , 21-H ) :   0.9942 B( 17-C , 18-C ) :   1.3807
B( 17-C , 24-H ) :   0.9942 B( 18-C , 19-C ) :   1.3823 B( 18-C , 25-H ) :   0.9937
B( 19-C , 26-H ) :   0.9942 B( 20-C , 27-H ) :   0.9937 B( 22-C , 39-H ) :   0.9517
B( 22-C , 40-H ) :   0.9545 B( 22-C , 41-H ) :   0.9567 B( 23-C , 36-H ) :   0.9559
B( 23-C , 37-H ) :   0.9515 B( 23-C , 38-H ) :   0.9553 B( 29-C , 33-H ) :   0.9515
B( 29-C , 34-H ) :   0.9553 B( 29-C , 35-H ) :   0.9559

Dispersion correction           -0.009505316
FINAL SINGLE POINT ENERGY      -845.245823932066

DIPOLE MOMENT
-------------
                                X             Y             Z
Electronic contribution:      0.00047       0.00026       0.72302
Nuclear contribution   :     -0.00045       0.00017      -0.09463
                        -----------------------------------------
Total Dipole Moment    :      0.00002       0.00042       0.62839
                        -----------------------------------------
Magnitude (a.u.)       :      0.62839
Magnitude (Debye)      :      1.59724

Dispersion correction in the Hessian             ... Starting D4

VIBRATIONAL FREQUENCIES
-----------------------

Scaling factor for frequencies =  1.000000000  (already applied!)

   0:         0.00 cm**-1
   1:         0.00 cm**-1
   2:         0.00 cm**-1
   3:         0.00 cm**-1
   4:         0.00 cm**-1
   5:         0.00 cm**-1
   6:         2.16 cm**-1
   7:         7.13 cm**-1
   8:        51.83 cm**-1
   9:        60.07 cm**-1
  10:        88.11 cm**-1
  11:        89.81 cm**-1
  12:       112.90 cm**-1
  13:       121.26 cm**-1
  14:       123.33 cm**-1
  15:       135.34 cm**-1
  16:       150.75 cm**-1
  17:       197.14 cm**-1
  18:       209.91 cm**-1
  19:       235.22 cm**-1
  20:       235.60 cm**-1
  21:       284.01 cm**-1
  22:       304.60 cm**-1
  23:       334.04 cm**-1
  24:       357.18 cm**-1
  25:       358.57 cm**-1
  26:       393.81 cm**-1
  27:       427.48 cm**-1
  28:       482.06 cm**-1
  29:       493.02 cm**-1
  30:       537.53 cm**-1
  31:       537.59 cm**-1
  32:       540.97 cm**-1
  33:       545.82 cm**-1
  34:       568.64 cm**-1
  35:       593.38 cm**-1
  36:       594.41 cm**-1
  37:       620.19 cm**-1
  38:       691.79 cm**-1
  39:       693.05 cm**-1
  40:       766.01 cm**-1
  41:       768.45 cm**-1
  42:       775.43 cm**-1
  43:       776.56 cm**-1
  44:       783.27 cm**-1
  45:       808.14 cm**-1
  46:       808.52 cm**-1
  47:       899.32 cm**-1
  48:       911.49 cm**-1
  49:       940.80 cm**-1
  50:       940.98 cm**-1
  51:       945.63 cm**-1
  52:       946.93 cm**-1
  53:       970.93 cm**-1
  54:       980.67 cm**-1
  55:      1010.56 cm**-1
  56:      1010.77 cm**-1
  57:      1040.74 cm**-1
  58:      1040.78 cm**-1
  59:      1057.37 cm**-1
  60:      1057.46 cm**-1
  61:      1060.91 cm**-1
  62:      1060.99 cm**-1
  63:      1064.46 cm**-1
  64:      1064.91 cm**-1
  65:      1080.86 cm**-1
  66:      1093.38 cm**-1
  67:      1110.49 cm**-1
  68:      1120.58 cm**-1
  69:      1146.57 cm**-1
  70:      1175.24 cm**-1
  71:      1175.27 cm**-1
  72:      1246.64 cm**-1
  73:      1262.80 cm**-1
  74:      1281.46 cm**-1
  75:      1281.74 cm**-1
  76:      1299.98 cm**-1
  77:      1307.98 cm**-1
  78:      1332.47 cm**-1
  79:      1332.96 cm**-1
  80:      1382.64 cm**-1
  81:      1395.55 cm**-1
  82:      1395.72 cm**-1
  83:      1402.38 cm**-1
  84:      1407.11 cm**-1
  85:      1425.44 cm**-1
  86:      1440.34 cm**-1
  87:      1442.59 cm**-1
  88:      1448.53 cm**-1
  89:      1449.20 cm**-1
  90:      1451.60 cm**-1
  91:      1451.91 cm**-1
  92:      1453.13 cm**-1
  93:      1453.38 cm**-1
  94:      1474.14 cm**-1
  95:      1527.14 cm**-1
  96:      1535.78 cm**-1
  97:      1536.19 cm**-1
  98:      1550.28 cm**-1
  99:      1644.79 cm**-1
 100:      1645.19 cm**-1
 101:      1695.11 cm**-1
 102:      1695.76 cm**-1
 103:      1707.44 cm**-1
 104:      1708.24 cm**-1
 105:      3067.22 cm**-1
 106:      3067.43 cm**-1
 107:      3069.42 cm**-1
 108:      3069.65 cm**-1
 109:      3155.94 cm**-1
 110:      3156.02 cm**-1
 111:      3157.86 cm**-1
 112:      3158.02 cm**-1
 113:      3191.82 cm**-1
 114:      3191.87 cm**-1
 115:      3192.71 cm**-1
 116:      3192.74 cm**-1
 117:      3214.41 cm**-1
 118:      3214.42 cm**-1
 119:      3221.91 cm**-1
 120:      3221.91 cm**-1
 121:      3233.71 cm**-1
 122:      3233.72 cm**-1
 123:      3295.98 cm**-1
 124:      3300.86 cm**-1
 125:      3319.21 cm**-1

IR SPECTRUM
-----------

 Mode   freq       eps      Int      T**2         TX        TY        TZ
       cm**-1   L/(mol*cm) km/mol    a.u.
----------------------------------------------------------------------------
  6:      2.16   0.000000    0.00  0.000000  ( 0.000000  0.000000  0.000000)
  7:      7.13   0.000036    0.18  0.001596  (-0.004420  0.018815  0.034970)
  8:     51.83   0.000103    0.52  0.000622  (-0.000004  0.000041  0.024940)
  9:     60.07   0.000009    0.04  0.000045  (-0.004783  0.004662 -0.000037)
 10:     88.11   0.000008    0.04  0.000027  (-0.000469 -0.000127 -0.005154)
 11:     89.81   0.000021    0.11  0.000074  (-0.007776 -0.003718  0.000332)
 12:    112.90   0.000056    0.28  0.000156  (-0.000083  0.000102  0.012476)
 13:    121.26   0.000484    2.45  0.001245  (-0.000346  0.000115 -0.035287)
 14:    123.33   0.000041    0.21  0.000105  (-0.007748  0.006631  0.000936)
 15:    135.34   0.000063    0.32  0.000145  (-0.011843 -0.002065  0.000201)
 16:    150.75   0.000002    0.01  0.000005  ( 0.000143 -0.000001 -0.002127)
 17:    197.14   0.000101    0.51  0.000160  (-0.011949 -0.004108 -0.000025)
 18:    209.91   0.000116    0.58  0.000172  (-0.000066 -0.000049 -0.013109)
 19:    235.22   0.000006    0.03  0.000007  ( 0.000089  0.000322  0.002699)
 20:    235.60   0.000003    0.02  0.000004  ( 0.000520  0.001986 -0.000431)
 21:    284.01   0.000018    0.09  0.000019  (-0.004313 -0.000913 -0.000048)
 22:    304.60   0.000002    0.01  0.000003  (-0.000357 -0.001552 -0.000012)
 23:    334.04   0.003625   18.32  0.003387  ( 0.000005 -0.000062 -0.058196)
 24:    357.18   0.001984   10.03  0.001734  ( 0.000028  0.000046  0.041637)
 25:    358.57   0.000018    0.09  0.000016  ( 0.000020  0.000015  0.003976)
 26:    393.81   0.000050    0.25  0.000039  ( 0.004402  0.004461  0.000011)
 27:    427.48   0.001721    8.70  0.001256  ( 0.035408  0.001525 -0.000017)
 28:    482.06   0.000324    1.64  0.000210  (-0.001464  0.014412 -0.000017)
 29:    493.02   0.000000    0.00  0.000000  (-0.000003 -0.000004 -0.000390)
 30:    537.53   0.000024    0.12  0.000014  (-0.000778  0.003675 -0.000160)
 31:    537.59   0.000004    0.02  0.000002  ( 0.000327 -0.001473 -0.000321)
 32:    540.97   0.001167    5.90  0.000673  ( 0.000480 -0.025946  0.000031)
 33:    545.82   0.000006    0.03  0.000004  (-0.000001 -0.000020  0.001927)
 34:    568.64   0.000748    3.78  0.000410  ( 0.000012  0.000021  0.020256)
 35:    593.38   0.000010    0.05  0.000005  (-0.000207  0.000003  0.002233)
 36:    594.41   0.000370    1.87  0.000194  ( 0.013926  0.000262  0.000038)
 37:    620.19   0.000128    0.65  0.000065  ( 0.008007  0.000683 -0.000002)
 38:    691.79   0.013580   68.63  0.006126  ( 0.001136 -0.078259  0.000079)
 39:    693.05   0.000025    0.12  0.000011  (-0.000003 -0.000067 -0.003323)
 40:    766.01   0.008659   43.76  0.003527  ( 0.000907  0.059385 -0.000034)
 41:    768.45   0.000016    0.08  0.000006  (-0.000004 -0.000217  0.002525)
 42:    775.43   0.000242    1.23  0.000098  ( 0.000059 -0.000021  0.009878)
 43:    776.56   0.000208    1.05  0.000083  (-0.009029 -0.001391  0.000015)
 44:    783.27   0.000077    0.39  0.000031  (-0.005084  0.002233 -0.000077)
 45:    808.14   0.016962   85.72  0.006550  ( 0.006127  0.002103  0.080671)
 46:    808.52   0.003177   16.05  0.001226  ( 0.029072  0.009458 -0.017070)
 47:    899.32   0.005517   27.88  0.001914  (-0.000412 -0.043751  0.000052)
 48:    911.49   0.000002    0.01  0.000001  ( 0.000021 -0.000028 -0.000817)
 49:    940.80   0.000019    0.09  0.000006  (-0.001027  0.001496  0.001694)
 50:    940.98   0.000020    0.10  0.000007  (-0.001182  0.001749 -0.001444)
 51:    945.63   0.000048    0.24  0.000016  ( 0.000037 -0.000349 -0.003983)
 52:    946.93   0.001007    5.09  0.000332  (-0.001862  0.018121 -0.000107)
 53:    970.93   0.003592   18.15  0.001154  (-0.033976 -0.000356 -0.000012)
 54:    980.67   0.000028    0.14  0.000009  ( 0.000014  0.000013 -0.003001)
 55:   1010.56   0.001623    8.20  0.000501  (-0.022329  0.000101 -0.001594)
 56:   1010.77   0.000312    1.58  0.000096  (-0.003891  0.000052  0.009018)
 57:   1040.74   0.000413    2.09  0.000124  (-0.001539  0.003454 -0.010471)
 58:   1040.78   0.000530    2.68  0.000159  ( 0.001356 -0.003023 -0.012162)
 59:   1057.37   0.001817    9.18  0.000536  ( 0.000198 -0.000460  0.023153)
 60:   1057.46   0.000116    0.59  0.000034  (-0.002028  0.005113  0.002022)
 61:   1060.91   0.000698    3.52  0.000205  ( 0.009561 -0.007057  0.007998)
 62:   1060.99   0.003245   16.40  0.000954  (-0.002464  0.001973  0.030733)
 63:   1064.46   0.000237    1.20  0.000069  ( 0.000006 -0.000527  0.008315)
 64:   1064.91   0.000830    4.19  0.000243  (-0.002391  0.015410  0.000112)
 65:   1080.86   0.007489   37.85  0.002162  ( 0.046500 -0.000001 -0.000003)
 66:   1093.38   0.004471   22.59  0.001276  ( 0.000027  0.000058  0.035720)
 67:   1110.49   0.000043    0.22  0.000012  ( 0.000047 -0.000022 -0.003490)
 68:   1120.58   0.010350   52.31  0.002882  (-0.053686  0.000463  0.000032)
 69:   1146.57   0.000166    0.84  0.000045  (-0.000011  0.000006  0.006732)
 70:   1175.24   0.000566    2.86  0.000150  (-0.000533  0.012222  0.000810)
 71:   1175.27   0.001351    6.83  0.000359  ( 0.000857 -0.018910  0.000558)
 72:   1246.64   0.012464   62.99  0.003120  (-0.055853  0.000681 -0.000006)
 73:   1262.80   0.008319   42.04  0.002056  ( 0.045335 -0.000617  0.000004)
 74:   1281.46   0.000000    0.00  0.000000  (-0.000042 -0.000174  0.000037)
 75:   1281.74   0.000050    0.25  0.000012  ( 0.000725  0.003412 -0.000009)
 76:   1299.98   0.000008    0.04  0.000002  (-0.000009  0.000016  0.001411)
 77:   1307.98   0.001612    8.15  0.000385  ( 0.019612  0.000112 -0.000006)
 78:   1332.47   0.000036    0.18  0.000009  ( 0.000005  0.000617  0.002851)
 79:   1332.96   0.008303   41.96  0.001944  ( 0.001015 -0.044078  0.000086)
 80:   1382.64   0.000838    4.24  0.000189  (-0.000015 -0.000007 -0.013755)
 81:   1395.55   0.000116    0.59  0.000026  ( 0.004889 -0.001410  0.000205)
 82:   1395.72   0.000046    0.23  0.000010  ( 0.000338 -0.000117 -0.003200)
 83:   1402.38   0.001345    6.80  0.000299  (-0.017237  0.001454 -0.000031)
 84:   1407.11   0.000014    0.07  0.000003  ( 0.000012  0.000007  0.001747)
 85:   1425.44   0.000383    1.93  0.000084  ( 0.008769  0.002626 -0.000027)
 86:   1440.34   0.001557    7.87  0.000337  (-0.000186 -0.000069  0.018365)
 87:   1442.59   0.002173   10.98  0.000470  (-0.021096 -0.005005 -0.000080)
 88:   1448.53   0.000938    4.74  0.000202  (-0.000350  0.000203 -0.014208)
 89:   1449.20   0.004623   23.36  0.000995  (-0.012705  0.028880 -0.000084)
 90:   1451.60   0.006507   32.89  0.001399  (-0.005970 -0.002153  0.036860)
 91:   1451.91   0.003166   16.00  0.000680  ( 0.022185  0.009225  0.010159)
 92:   1453.13   0.003612   18.25  0.000776  ( 0.000499  0.000414  0.027844)
 93:   1453.38   0.000422    2.13  0.000091  ( 0.007181  0.005301 -0.003301)
 94:   1474.14   0.000480    2.43  0.000102  ( 0.000001 -0.000004  0.010082)
 95:   1527.14   0.012535   63.35  0.002562  ( 0.050600  0.001094  0.000004)
 96:   1535.78   0.000070    0.35  0.000014  (-0.000026  0.000151  0.003758)
 97:   1536.19   0.011485   58.04  0.002333  ( 0.003144 -0.048200  0.000054)
 98:   1550.28   0.003249   16.42  0.000654  (-0.000006 -0.000003 -0.025573)
 99:   1644.79   0.000974    4.92  0.000185  ( 0.000502 -0.000020 -0.013582)
100:   1645.19   0.055772  281.85  0.010579  (-0.102839  0.001764 -0.000066)
101:   1695.11   0.002600   13.14  0.000479  ( 0.021876 -0.000103 -0.000012)
102:   1695.76   0.000272    1.38  0.000050  ( 0.000023 -0.000006  0.007077)
103:   1707.44   0.000047    0.24  0.000009  (-0.000003 -0.000090 -0.002920)
104:   1708.24   0.006324   31.96  0.001155  ( 0.000229 -0.033989  0.000045)
105:   3067.22   0.007001   35.38  0.000712  ( 0.009900 -0.024780 -0.000479)
106:   3067.43   0.000269    1.36  0.000027  ( 0.001491 -0.003658  0.003427)
107:   3069.42   0.000594    3.00  0.000060  ( 0.004717  0.003337 -0.005199)
108:   3069.65   0.004201   21.23  0.000427  (-0.016780 -0.011977 -0.001433)
109:   3155.94   0.001071    5.41  0.000106  ( 0.001820  0.003177  0.009620)
110:   3156.02   0.001999   10.10  0.000198  ( 0.001214  0.002175 -0.013836)
111:   3157.86   0.000816    4.12  0.000081  (-0.005413 -0.002221 -0.006809)
112:   3158.02   0.000809    4.09  0.000080  (-0.005561 -0.002317  0.006603)
113:   3191.82   0.003445   17.41  0.000337  (-0.010848 -0.014793  0.000518)
114:   3191.87   0.000353    1.79  0.000035  (-0.001005 -0.001212 -0.005662)
115:   3192.71   0.003245   16.40  0.000317  (-0.013685  0.011347  0.001088)
116:   3192.74   0.000577    2.91  0.000056  ( 0.005456 -0.004411  0.002675)
117:   3214.41   0.000068    0.34  0.000007  ( 0.002527 -0.000487  0.000008)
118:   3214.42   0.000012    0.06  0.000001  (-0.000021  0.000005  0.001070)
119:   3221.91   0.001343    6.79  0.000130  ( 0.000030  0.011369  0.000915)
120:   3221.91   0.001486    7.51  0.000144  ( 0.000027  0.011963 -0.000894)
121:   3233.71   0.002803   14.16  0.000270  (-0.016435  0.000555  0.000251)
122:   3233.72   0.000297    1.50  0.000029  (-0.000784  0.000023 -0.005295)
123:   3295.98   0.015229   76.96  0.001442  (-0.000002 -0.000041 -0.037972)
124:   3300.86   0.007628   38.55  0.000721  ( 0.026855 -0.000147 -0.000002)
125:   3319.21   0.004022   20.33  0.000378  ( 0.000002 -0.000023 -0.019446)

--------------------------
THERMOCHEMISTRY AT 298.15K
--------------------------

Temperature         ... 298.15 K
Pressure            ... 1.00 atm
Total Mass          ... 277.39 AMU

Throughout the following assumptions are being made:
  (1) The electronic state is orbitally nondegenerate
  (2) There are no thermally accessible electronically excited states
  (3) Hindered rotations indicated by low frequency modes are not
      treated as such but are treated as vibrations and this may
      cause some error
  (4) All equations used are the standard statistical mechanics
      equations for an ideal gas
  (5) All vibrations are strictly harmonic

freq.       2.16  E(vib)   ...       0.59
freq.       7.13  E(vib)   ...       0.58
freq.      51.83  E(vib)   ...       0.52
freq.      60.07  E(vib)   ...       0.51
freq.      88.11  E(vib)   ...       0.48
freq.      89.81  E(vib)   ...       0.47
freq.     112.90  E(vib)   ...       0.45
freq.     121.26  E(vib)   ...       0.44
freq.     123.33  E(vib)   ...       0.43
freq.     135.34  E(vib)   ...       0.42
freq.     150.75  E(vib)   ...       0.40
freq.     197.14  E(vib)   ...       0.35
freq.     209.91  E(vib)   ...       0.34
freq.     235.22  E(vib)   ...       0.32
freq.     235.60  E(vib)   ...       0.32
freq.     284.01  E(vib)   ...       0.28
freq.     304.60  E(vib)   ...       0.26
freq.     334.04  E(vib)   ...       0.24
freq.     357.18  E(vib)   ...       0.22
freq.     358.57  E(vib)   ...       0.22
freq.     393.81  E(vib)   ...       0.20
freq.     427.48  E(vib)   ...       0.18
freq.     482.06  E(vib)   ...       0.15
freq.     493.02  E(vib)   ...       0.14
freq.     537.53  E(vib)   ...       0.12
freq.     537.59  E(vib)   ...       0.12
freq.     540.97  E(vib)   ...       0.12
freq.     545.82  E(vib)   ...       0.12
freq.     568.64  E(vib)   ...       0.11
freq.     593.38  E(vib)   ...       0.10
freq.     594.41  E(vib)   ...       0.10
freq.     620.19  E(vib)   ...       0.09
freq.     691.79  E(vib)   ...       0.07
freq.     693.05  E(vib)   ...       0.07
freq.     766.01  E(vib)   ...       0.06
freq.     768.45  E(vib)   ...       0.06
freq.     775.43  E(vib)   ...       0.05
freq.     776.56  E(vib)   ...       0.05
freq.     783.27  E(vib)   ...       0.05
freq.     808.14  E(vib)   ...       0.05
freq.     808.52  E(vib)   ...       0.05
freq.     899.32  E(vib)   ...       0.03
freq.     911.49  E(vib)   ...       0.03
freq.     940.80  E(vib)   ...       0.03
freq.     940.98  E(vib)   ...       0.03
freq.     945.63  E(vib)   ...       0.03
freq.     946.93  E(vib)   ...       0.03
freq.     970.93  E(vib)   ...       0.03
freq.     980.67  E(vib)   ...       0.02
freq.    1010.56  E(vib)   ...       0.02
freq.    1010.77  E(vib)   ...       0.02
freq.    1040.74  E(vib)   ...       0.02
freq.    1040.78  E(vib)   ...       0.02
freq.    1057.37  E(vib)   ...       0.02
freq.    1057.46  E(vib)   ...       0.02
freq.    1060.91  E(vib)   ...       0.02
freq.    1060.99  E(vib)   ...       0.02
freq.    1064.46  E(vib)   ...       0.02
freq.    1064.91  E(vib)   ...       0.02
freq.    1080.86  E(vib)   ...       0.02
freq.    1093.38  E(vib)   ...       0.02
freq.    1110.49  E(vib)   ...       0.02
freq.    1120.58  E(vib)   ...       0.01
freq.    1146.57  E(vib)   ...       0.01
freq.    1175.24  E(vib)   ...       0.01
freq.    1175.27  E(vib)   ...       0.01
freq.    1246.64  E(vib)   ...       0.01
freq.    1262.80  E(vib)   ...       0.01
freq.    1281.46  E(vib)   ...       0.01
freq.    1281.74  E(vib)   ...       0.01
freq.    1299.98  E(vib)   ...       0.01
freq.    1307.98  E(vib)   ...       0.01
freq.    1332.47  E(vib)   ...       0.01
freq.    1332.96  E(vib)   ...       0.01
freq.    1382.64  E(vib)   ...       0.01
freq.    1395.55  E(vib)   ...       0.00
freq.    1395.72  E(vib)   ...       0.00
freq.    1402.38  E(vib)   ...       0.00
freq.    1407.11  E(vib)   ...       0.00
freq.    1425.44  E(vib)   ...       0.00
freq.    1440.34  E(vib)   ...       0.00
freq.    1442.59  E(vib)   ...       0.00
freq.    1448.53  E(vib)   ...       0.00
freq.    1449.20  E(vib)   ...       0.00
freq.    1451.60  E(vib)   ...       0.00
freq.    1451.91  E(vib)   ...       0.00
freq.    1453.13  E(vib)   ...       0.00
freq.    1453.38  E(vib)   ...       0.00
freq.    1474.14  E(vib)   ...       0.00
freq.    1527.14  E(vib)   ...       0.00
freq.    1535.78  E(vib)   ...       0.00
freq.    1536.19  E(vib)   ...       0.00
freq.    1550.28  E(vib)   ...       0.00
freq.    1644.79  E(vib)   ...       0.00
freq.    1645.19  E(vib)   ...       0.00
freq.    1695.11  E(vib)   ...       0.00
freq.    1695.76  E(vib)   ...       0.00
freq.    1707.44  E(vib)   ...       0.00
freq.    1708.24  E(vib)   ...       0.00
freq.    3067.22  E(vib)   ...       0.00
freq.    3067.43  E(vib)   ...       0.00
freq.    3069.42  E(vib)   ...       0.00
freq.    3069.65  E(vib)   ...       0.00
freq.    3155.94  E(vib)   ...       0.00
freq.    3156.02  E(vib)   ...       0.00
freq.    3157.86  E(vib)   ...       0.00
freq.    3158.02  E(vib)   ...       0.00
freq.    3191.82  E(vib)   ...       0.00
freq.    3191.87  E(vib)   ...       0.00
freq.    3192.71  E(vib)   ...       0.00
freq.    3192.74  E(vib)   ...       0.00
freq.    3214.41  E(vib)   ...       0.00
freq.    3214.42  E(vib)   ...       0.00
freq.    3221.91  E(vib)   ...       0.00
freq.    3221.91  E(vib)   ...       0.00
freq.    3233.71  E(vib)   ...       0.00
freq.    3233.72  E(vib)   ...       0.00
freq.    3295.98  E(vib)   ...       0.00
freq.    3300.86  E(vib)   ...       0.00
freq.    3319.21  E(vib)   ...       0.00

------------
INNER ENERGY
------------

The inner energy is: U= E(el) + E(ZPE) + E(vib) + E(rot) + E(trans)
    E(el)   - is the total energy from the electronic structure calculation
              = E(kin-el) + E(nuc-el) + E(el-el) + E(nuc-nuc)
    E(ZPE)  - the the zero temperature vibrational energy from the frequency calculation
    E(vib)  - the the finite temperature correction to E(ZPE) due to population
              of excited vibrational states
    E(rot)  - is the rotational thermal energy
    E(trans)- is the translational thermal energy

Summary of contributions to the inner energy U:
Electronic energy                ...   -845.24582393 Eh
Zero point energy                ...      0.35896090 Eh     225.25 kcal/mol
Thermal vibrational correction   ...      0.01687194 Eh      10.59 kcal/mol
Thermal rotational correction    ...      0.00141627 Eh       0.89 kcal/mol
Thermal translational correction ...      0.00141627 Eh       0.89 kcal/mol
-----------------------------------------------------------------------
Total thermal energy                   -844.86715854 Eh

Rotational constants in cm-1:     0.023145     0.005946     0.005198

                             ****ORCA TERMINATED NORMALLY****
TOTAL RUN TIME: 0 days 2 hours 30 minutes 6 seconds 866 msec
