                         Program Version 5.0.4 -  RELEASE  -
|  1> # ORCA 5.0.4 - /users/bwb16179/postgrad/2024_03/DFT_Crest_Conformers/Opt/prot/8_prot_aq_2.inp # write input file
|  2> # Basic Mode
|  3> #
|  4> ! Freq wB97X Def2-SVP D4 SlowConv TightSCF Defgrid2 Def2/J RIJCOSX CPCM(Water)
|  5>
|  6>
|  7>
|  8> %maxcore 4500
|  9>
| 10> %geom
| 11> Maxiter 150
| 12> END
| 13>
| 14> * xyzfile 1 1 8_prot_aq_2.xyz
| 15>
| 16>                          ****END OF INPUT****

CARTESIAN COORDINATES (ANGSTROEM)
---------------------------------
  N     -1.074990   -0.045240    0.493930
  C      0.000930   -0.033640   -0.334380
  N      1.085340   -0.105320    0.477050
  H     -0.004160    0.039670   -1.479490
  C      0.691040   -0.162260    1.875210
  C     -0.667070   -0.125080    1.885800
  C     -2.446640    0.048480    0.040430
  C      2.450990   -0.075950   -0.003460
  C     -2.962030   -1.003000   -0.758670
  C     -3.194540    1.187720    0.453830
  C      3.211290    1.077920    0.262670
  C      2.947630   -1.200230   -0.684610
  H      1.416630   -0.215310    2.732830
  H     -1.386030   -0.132980    2.754780
  C     -4.306930   -0.892820   -1.143580
  C     -2.098240   -2.185950   -1.215490
  C     -4.532890    1.253100    0.044500
  C      4.540200    1.084960   -0.183740
  C      5.068430   -0.015650   -0.866350
  C      4.281190   -1.144520   -1.117140
  C     -5.083410    0.220790   -0.743320
  H     -5.146270    2.127800    0.347150
  C      2.081160   -2.411660   -0.939930
  C      2.618180    2.253810    1.004030
  H      5.164320    1.968260    0.008420
  H      6.111490    0.005940   -1.206790
  H      4.706290   -2.005080   -1.649070
  H     -6.134510    0.286020   -1.051480
  H     -4.748170   -1.699920   -1.756690
  C     -2.570930    2.293700    1.292850
  H     -1.576540   -1.913310   -2.288570
  H     -2.831350   -3.081590   -1.329740
  H     -1.203860   -2.478240   -0.427940
  H     -1.535720    2.556340    0.894820
  H     -2.442950    1.994580    2.388080
  H     -3.235460    3.190560    1.258420
  H      1.566520    2.464070    0.619870
  H      3.278410    3.165830    0.852320
  H      2.542630    2.050530    2.135650
  H      1.351410   -2.199160   -1.769540
  H      1.481150   -2.701560   -0.023450
  H      2.723900   -3.281130   -1.239700

 Total Charge           Charge          ....    1
 Multiplicity           Mult            ....    1
 Number of Electrons    NEL             ....  148
 Basis Dimension        Dim             ....  399

ORBITAL ENERGIES
----------------

  NO   OCC          E(Eh)            E(eV)
   0   2.0000     -14.524031      -395.2190
   1   2.0000     -14.523926      -395.2161
   2   2.0000     -10.413149      -283.3562
   3   2.0000     -10.356173      -281.8058
   4   2.0000     -10.355533      -281.7884
   5   2.0000     -10.337934      -281.3095
   6   2.0000     -10.333583      -281.1911
   7   2.0000     -10.310475      -280.5623
   8   2.0000     -10.310360      -280.5591
   9   2.0000     -10.308376      -280.5052
  10   2.0000     -10.305462      -280.4259
  11   2.0000     -10.304937      -280.4116
  12   2.0000     -10.293763      -280.1075
  13   2.0000     -10.290020      -280.0057
  14   2.0000     -10.289727      -279.9977
  15   2.0000     -10.289519      -279.9920
  16   2.0000     -10.289057      -279.9795
  17   2.0000     -10.288696      -279.9697
  18   2.0000     -10.286115      -279.8994
  19   2.0000     -10.285111      -279.8721
  20   2.0000     -10.284983      -279.8686
  21   2.0000      -1.203012       -32.7356
  22   2.0000      -1.094815       -29.7914
  23   2.0000      -1.009408       -27.4674
  24   2.0000      -0.989027       -26.9128
  25   2.0000      -0.937869       -25.5207
  26   2.0000      -0.921790       -25.0832
  27   2.0000      -0.919456       -25.0197
  28   2.0000      -0.905505       -24.6400
  29   2.0000      -0.880667       -23.9642
  30   2.0000      -0.841166       -22.8893
  31   2.0000      -0.818422       -22.2704
  32   2.0000      -0.806344       -21.9417
  33   2.0000      -0.801667       -21.8145
  34   2.0000      -0.776588       -21.1320
  35   2.0000      -0.767934       -20.8966
  36   2.0000      -0.731626       -19.9086
  37   2.0000      -0.720624       -19.6092
  38   2.0000      -0.706839       -19.2341
  39   2.0000      -0.702030       -19.1032
  40   2.0000      -0.675945       -18.3934
  41   2.0000      -0.639316       -17.3967
  42   2.0000      -0.633996       -17.2519
  43   2.0000      -0.606494       -16.5035
  44   2.0000      -0.606095       -16.4927
  45   2.0000      -0.592320       -16.1178
  46   2.0000      -0.586130       -15.9494
  47   2.0000      -0.576779       -15.6950
  48   2.0000      -0.573106       -15.5950
  49   2.0000      -0.562986       -15.3196
  50   2.0000      -0.542219       -14.7545
  51   2.0000      -0.539324       -14.6757
  52   2.0000      -0.535288       -14.5659
  53   2.0000      -0.532421       -14.4879
  54   2.0000      -0.522727       -14.2241
  55   2.0000      -0.521636       -14.1944
  56   2.0000      -0.520355       -14.1596
  57   2.0000      -0.515238       -14.0203
  58   2.0000      -0.513151       -13.9636
  59   2.0000      -0.507951       -13.8220
  60   2.0000      -0.483266       -13.1503
  61   2.0000      -0.480182       -13.0664
  62   2.0000      -0.468651       -12.7526
  63   2.0000      -0.466819       -12.7028
  64   2.0000      -0.462074       -12.5737
  65   2.0000      -0.461630       -12.5616
  66   2.0000      -0.455620       -12.3981
  67   2.0000      -0.454637       -12.3713
  68   2.0000      -0.428891       -11.6707
  69   2.0000      -0.391439       -10.6516
  70   2.0000      -0.361009        -9.8236
  71   2.0000      -0.350774        -9.5450
  72   2.0000      -0.347630        -9.4595
  73   2.0000      -0.346075        -9.4172
  74   0.0000       0.023567         0.6413
  75   0.0000       0.048878         1.3300
  76   0.0000       0.054529         1.4838
  77   0.0000       0.058643         1.5958
  78   0.0000       0.060551         1.6477

MULLIKEN ATOMIC CHARGES
-----------------------
   0 N :   -0.244738
   1 C :    0.255772
   2 N :   -0.244272
   3 H :    0.199069
   4 C :    0.083622
   5 C :    0.081540
   6 C :    0.041313
   7 C :    0.035783
   8 C :   -0.058712
   9 C :   -0.083563
  10 C :   -0.075486
  11 C :   -0.080793
  12 H :    0.145619
  13 H :    0.149108
  14 C :   -0.086266
  15 C :   -0.091394
  16 C :   -0.093408
  17 C :   -0.088688
  18 C :    0.011885
  19 C :   -0.086987
  20 C :    0.006313
  21 H :    0.045836
  22 C :    0.018225
  23 C :    0.002690
  24 H :    0.035709
  25 H :    0.047872
  26 H :    0.035039
  27 H :    0.050840
  28 H :    0.042840
  29 C :    0.016786
  30 H :    0.108559
  31 H :    0.086117
  32 H :    0.092625
  33 H :    0.068446
  34 H :    0.081036
  35 H :    0.062470
  36 H :    0.067923
  37 H :    0.067756
  38 H :    0.085325
  39 H :    0.073771
  40 H :    0.071825
  41 H :    0.062590
Sum of atomic charges:    1.0000000

LOEWDIN ATOMIC CHARGES
----------------------
   0 N :    0.078946
   1 C :    0.158916
   2 N :    0.080662
   3 H :    0.106793
   4 C :    0.038692
   5 C :    0.038867
   6 C :   -0.008808
   7 C :   -0.010669
   8 C :   -0.028993
   9 C :   -0.021524
  10 C :   -0.021359
  11 C :   -0.019914
  12 H :    0.083643
  13 H :    0.084823
  14 C :   -0.036974
  15 C :   -0.090593
  16 C :   -0.038451
  17 C :   -0.037305
  18 C :   -0.012996
  19 C :   -0.037191
  20 C :   -0.013269
  21 H :    0.047692
  22 C :   -0.062138
  23 C :   -0.067481
  24 H :    0.043595
  25 H :    0.046378
  26 H :    0.043297
  27 H :    0.045999
  28 H :    0.046047
  29 C :   -0.064411
  30 H :    0.068885
  31 H :    0.056097
  32 H :    0.056956
  33 H :    0.047745
  34 H :    0.053779
  35 H :    0.046590
  36 H :    0.046273
  37 H :    0.049960
  38 H :    0.056075
  39 H :    0.050101
  40 H :    0.046809
  41 H :    0.048455

  Mayer bond orders larger than 0.100000
B(  0-N ,  1-C ) :   1.3228 B(  0-N ,  5-C ) :   1.0731 B(  0-N ,  6-C ) :   0.8923
B(  1-C ,  2-N ) :   1.3250 B(  1-C ,  3-H ) :   0.9440 B(  2-N ,  4-C ) :   1.0722
B(  2-N ,  7-C ) :   0.8967 B(  4-C ,  5-C ) :   1.6774 B(  4-C , 12-H ) :   0.9686
B(  5-C , 13-H ) :   0.9657 B(  6-C ,  8-C ) :   1.4181 B(  6-C ,  9-C ) :   1.3972
B(  7-C , 10-C ) :   1.4130 B(  7-C , 11-C ) :   1.4208 B(  8-C , 14-C ) :   1.3967
B(  8-C , 15-C ) :   1.0378 B(  9-C , 16-C ) :   1.4110 B(  9-C , 29-C ) :   1.0520
B( 10-C , 17-C ) :   1.3985 B( 10-C , 23-C ) :   1.0534 B( 11-C , 19-C ) :   1.3954
B( 11-C , 22-C ) :   1.0504 B( 14-C , 20-C ) :   1.3902 B( 14-C , 28-H ) :   0.9888
B( 15-C , 30-H ) :   0.9485 B( 15-C , 31-H ) :   0.9539 B( 15-C , 32-H ) :   0.9520
B( 16-C , 20-C ) :   1.3798 B( 16-C , 21-H ) :   0.9884 B( 17-C , 18-C ) :   1.3815
B( 17-C , 24-H ) :   0.9937 B( 18-C , 19-C ) :   1.3851 B( 18-C , 25-H ) :   0.9919
B( 19-C , 26-H ) :   0.9930 B( 20-C , 27-H ) :   0.9899 B( 22-C , 39-H ) :   0.9498
B( 22-C , 40-H ) :   0.9569 B( 22-C , 41-H ) :   0.9547 B( 23-C , 36-H ) :   0.9569
B( 23-C , 37-H ) :   0.9568 B( 23-C , 38-H ) :   0.9477 B( 29-C , 33-H ) :   0.9573
B( 29-C , 34-H ) :   0.9481 B( 29-C , 35-H ) :   0.9566

Dispersion correction           -0.009443966
FINAL SINGLE POINT ENERGY      -845.200220781576

DIPOLE MOMENT
-------------
                                X             Y             Z
Electronic contribution:     -0.08907      -0.16554       0.86186
Nuclear contribution   :      0.05023       0.12663      -0.19491
                        -----------------------------------------
Total Dipole Moment    :     -0.03884      -0.03891       0.66695
                        -----------------------------------------
Magnitude (a.u.)       :      0.66921
Magnitude (Debye)      :      1.70100

Dispersion correction in the Hessian             ... Starting D4

VIBRATIONAL FREQUENCIES
-----------------------

Scaling factor for frequencies =  1.000000000  (already applied!)

   0:         0.00 cm**-1
   1:         0.00 cm**-1
   2:         0.00 cm**-1
   3:         0.00 cm**-1
   4:         0.00 cm**-1
   5:         0.00 cm**-1
   6:        67.71 cm**-1
   7:        78.39 cm**-1
   8:        87.92 cm**-1
   9:       125.02 cm**-1
  10:       132.31 cm**-1
  11:       166.50 cm**-1
  12:       221.24 cm**-1
  13:       239.95 cm**-1
  14:       259.55 cm**-1
  15:       266.85 cm**-1
  16:       287.12 cm**-1
  17:       318.79 cm**-1
  18:       349.57 cm**-1
  19:       372.89 cm**-1
  20:       383.49 cm**-1
  21:       391.62 cm**-1
  22:       418.58 cm**-1
  23:       444.59 cm**-1
  24:       493.82 cm**-1
  25:       505.06 cm**-1
  26:       507.52 cm**-1
  27:       534.76 cm**-1
  28:       549.47 cm**-1
  29:       556.01 cm**-1
  30:       569.77 cm**-1
  31:       573.87 cm**-1
  32:       580.38 cm**-1
  33:       582.43 cm**-1
  34:       595.46 cm**-1
  35:       596.93 cm**-1
  36:       617.55 cm**-1
  37:       706.01 cm**-1
  38:       728.18 cm**-1
  39:       762.64 cm**-1
  40:       769.23 cm**-1
  41:       790.00 cm**-1
  42:       794.48 cm**-1
  43:       807.96 cm**-1
  44:       831.90 cm**-1
  45:       853.36 cm**-1
  46:       901.28 cm**-1
  47:       916.90 cm**-1
  48:       937.14 cm**-1
  49:       943.46 cm**-1
  50:       960.87 cm**-1
  51:       961.98 cm**-1
  52:       993.96 cm**-1
  53:      1018.29 cm**-1
  54:      1026.73 cm**-1
  55:      1028.83 cm**-1
  56:      1053.27 cm**-1
  57:      1059.28 cm**-1
  58:      1069.14 cm**-1
  59:      1069.91 cm**-1
  60:      1075.08 cm**-1
  61:      1108.07 cm**-1
  62:      1111.58 cm**-1
  63:      1114.68 cm**-1
  64:      1120.53 cm**-1
  65:      1131.98 cm**-1
  66:      1135.55 cm**-1
  67:      1151.25 cm**-1
  68:      1156.42 cm**-1
  69:      1175.98 cm**-1
  70:      1179.02 cm**-1
  71:      1211.73 cm**-1
  72:      1228.39 cm**-1
  73:      1253.07 cm**-1
  74:      1266.05 cm**-1
  75:      1277.94 cm**-1
  76:      1285.37 cm**-1
  77:      1295.83 cm**-1
  78:      1297.32 cm**-1
  79:      1304.86 cm**-1
  80:      1316.60 cm**-1
  81:      1325.70 cm**-1
  82:      1410.32 cm**-1
  83:      1435.61 cm**-1
  84:      1443.01 cm**-1
  85:      1453.00 cm**-1
  86:      1468.60 cm**-1
  87:      1473.42 cm**-1
  88:      1476.02 cm**-1
  89:      1481.01 cm**-1
  90:      1481.63 cm**-1
  91:      1482.23 cm**-1
  92:      1484.80 cm**-1
  93:      1491.87 cm**-1
  94:      1504.21 cm**-1
  95:      1508.74 cm**-1
  96:      1517.23 cm**-1
  97:      1524.66 cm**-1
  98:      1527.49 cm**-1
  99:      1565.99 cm**-1
 100:      1629.14 cm**-1
 101:      1640.40 cm**-1
 102:      1663.39 cm**-1
 103:      1676.54 cm**-1
 104:      1688.65 cm**-1
 105:      2146.45 cm**-1
 106:      2174.42 cm**-1
 107:      2629.28 cm**-1
 108:      2686.84 cm**-1
 109:      2758.15 cm**-1
 110:      2798.90 cm**-1
 111:      2817.69 cm**-1
 112:      2826.77 cm**-1
 113:      2833.03 cm**-1
 114:      2861.93 cm**-1
 115:      2924.97 cm**-1
 116:      2967.50 cm**-1
 117:      2978.16 cm**-1
 118:      3001.05 cm**-1
 119:      3011.99 cm**-1
 120:      3075.92 cm**-1
 121:      3118.03 cm**-1
 122:      3176.40 cm**-1
 123:      3186.08 cm**-1
 124:      3195.69 cm**-1
 125:      3199.04 cm**-1

IR SPECTRUM
-----------

 Mode   freq       eps      Int      T**2         TX        TY        TZ
       cm**-1   L/(mol*cm) km/mol    a.u.
----------------------------------------------------------------------------
  6:     67.71   0.000053    0.27  0.000246  (-0.000019  0.014889 -0.004895)
  7:     78.39   0.000068    0.35  0.000272  ( 0.000571  0.004432  0.015888)
  8:     87.92   0.000023    0.12  0.000082  ( 0.000088  0.009049  0.000471)
  9:    125.02   0.000008    0.04  0.000019  ( 0.003957 -0.001052 -0.001587)
 10:    132.31   0.000002    0.01  0.000004  (-0.001722  0.001047  0.000101)
 11:    166.50   0.000011    0.06  0.000021  ( 0.000712 -0.004414  0.001065)
 12:    221.24   0.000054    0.27  0.000076  (-0.002507  0.006012 -0.005798)
 13:    239.95   0.000035    0.18  0.000045  (-0.001446 -0.006197  0.002159)
 14:    259.55   0.000014    0.07  0.000017  (-0.000585 -0.001638  0.003727)
 15:    266.85   0.000243    1.23  0.000284  ( 0.016084  0.000597  0.004990)
 16:    287.12   0.000106    0.53  0.000115  (-0.002177  0.001395 -0.010399)
 17:    318.79   0.000029    0.14  0.000028  (-0.005035 -0.000518  0.001537)
 18:    349.57   0.000205    1.04  0.000183  (-0.002007 -0.009795  0.009109)
 19:    372.89   0.004409   22.28  0.003690  ( 0.001820 -0.024053  0.055749)
 20:    383.49   0.000576    2.91  0.000469  ( 0.000119  0.006996 -0.020485)
 21:    391.62   0.000885    4.47  0.000705  (-0.005050 -0.010362  0.023923)
 22:    418.58   0.000645    3.26  0.000481  (-0.019166  0.007079 -0.007950)
 23:    444.59   0.001087    5.49  0.000763  (-0.027187 -0.003070  0.003806)
 24:    493.82   0.000146    0.74  0.000093  ( 0.000424 -0.008771 -0.003932)
 25:    505.06   0.000018    0.09  0.000011  ( 0.002230 -0.000978  0.002254)
 26:    507.52   0.000010    0.05  0.000006  (-0.002352 -0.000949  0.000043)
 27:    534.76   0.000035    0.18  0.000021  (-0.001606  0.004228 -0.000456)
 28:    549.47   0.001205    6.09  0.000684  (-0.000660 -0.024184 -0.009939)
 29:    556.01   0.000049    0.25  0.000028  (-0.001194  0.001684  0.004848)
 30:    569.77   0.000007    0.04  0.000004  (-0.001772 -0.000920 -0.000006)
 31:    573.87   0.000395    2.00  0.000215  (-0.002716  0.005855 -0.013164)
 32:    580.38   0.000166    0.84  0.000089  ( 0.001222  0.002553  0.009011)
 33:    582.43   0.000018    0.09  0.000010  (-0.000237 -0.001473 -0.002729)
 34:    595.46   0.000310    1.56  0.000162  (-0.012613  0.001392  0.001080)
 35:    596.93   0.000060    0.30  0.000031  ( 0.000556  0.003380 -0.004411)
 36:    617.55   0.000015    0.08  0.000008  ( 0.002280 -0.000140 -0.001576)
 37:    706.01   0.000339    1.71  0.000150  (-0.012225  0.000066 -0.000667)
 38:    728.18   0.006993   35.34  0.002997  ( 0.001504  0.053932  0.009272)
 39:    762.64   0.000125    0.63  0.000051  ( 0.004990 -0.000075  0.005143)
 40:    769.23   0.000438    2.21  0.000178  ( 0.013092  0.000671 -0.002440)
 41:    790.00   0.000556    2.81  0.000219  (-0.000199  0.012795 -0.007465)
 42:    794.48   0.001408    7.11  0.000553  (-0.009860  0.014368 -0.015790)
 43:    807.96   0.001104    5.58  0.000426  ( 0.008822  0.015310 -0.010684)
 44:    831.90   0.009981   50.44  0.003744  (-0.017265  0.027951 -0.051623)
 45:    853.36   0.010174   51.41  0.003720  ( 0.016652  0.032053 -0.049149)
 46:    901.28   0.000967    4.89  0.000335  (-0.002189  0.003119 -0.017894)
 47:    916.90   0.014621   73.89  0.004976  ( 0.001674  0.070523 -0.000127)
 48:    937.14   0.002012   10.17  0.000670  ( 0.015803 -0.016317 -0.012408)
 49:    943.46   0.004637   23.43  0.001534  ( 0.037945  0.008563  0.004525)
 50:    960.87   0.001282    6.48  0.000416  ( 0.001072  0.018470  0.008611)
 51:    961.98   0.000108    0.54  0.000035  (-0.000416 -0.004382 -0.003946)
 52:    993.96   0.000016    0.08  0.000005  ( 0.002003 -0.000485 -0.000821)
 53:   1018.29   0.005724   28.93  0.001754  (-0.041846  0.001771 -0.000243)
 54:   1026.73   0.000227    1.15  0.000069  ( 0.003955 -0.004360  0.005849)
 55:   1028.83   0.001332    6.73  0.000404  (-0.019099  0.004815  0.004019)
 56:   1053.27   0.000102    0.51  0.000030  ( 0.002855  0.003870 -0.002650)
 57:   1059.28   0.000438    2.22  0.000129  (-0.000976 -0.009952  0.005399)
 58:   1069.14   0.000605    3.06  0.000177  (-0.011235 -0.001309 -0.006978)
 59:   1069.91   0.005387   27.23  0.001571  ( 0.000244  0.039626  0.001027)
 60:   1075.08   0.000399    2.02  0.000116  ( 0.006233  0.007563  0.004447)
 61:   1108.07   0.001949    9.85  0.000549  (-0.002737 -0.008530 -0.021646)
 62:   1111.58   0.003357   16.97  0.000943  ( 0.028127 -0.005823  0.010838)
 63:   1114.68   0.001037    5.24  0.000290  ( 0.015200 -0.003011 -0.007086)
 64:   1120.53   0.002115   10.69  0.000589  ( 0.010477  0.000636 -0.021881)
 65:   1131.98   0.002695   13.62  0.000743  ( 0.023229  0.004806 -0.013421)
 66:   1135.55   0.001498    7.57  0.000412  ( 0.012351  0.003192  0.015781)
 67:   1151.25   0.002025   10.23  0.000549  ( 0.001477  0.008377 -0.021830)
 68:   1156.42   0.002406   12.16  0.000649  (-0.006394 -0.017564 -0.017314)
 69:   1175.98   0.001069    5.40  0.000284  (-0.002529 -0.014940 -0.007361)
 70:   1179.02   0.000441    2.23  0.000117  ( 0.009805 -0.001448  0.004301)
 71:   1211.73   0.001733    8.76  0.000446  ( 0.013184 -0.010312 -0.012894)
 72:   1228.39   0.000018    0.09  0.000005  (-0.001542  0.000304 -0.001427)
 73:   1253.07   0.014317   72.35  0.003566  ( 0.059619  0.001060  0.003180)
 74:   1266.05   0.008683   43.88  0.002140  ( 0.045020  0.005100 -0.009352)
 75:   1277.94   0.011931   60.29  0.002913  ( 0.052720 -0.011345 -0.002296)
 76:   1285.37   0.000332    1.68  0.000081  (-0.004844  0.002880  0.006989)
 77:   1295.83   0.004334   21.90  0.001044  (-0.029379 -0.001598 -0.013342)
 78:   1297.32   0.003007   15.20  0.000723  (-0.026855 -0.001396 -0.000381)
 79:   1304.86   0.002815   14.23  0.000673  (-0.023888 -0.002095  0.009911)
 80:   1316.60   0.004146   20.95  0.000983  (-0.003802 -0.025648 -0.017619)
 81:   1325.70   0.001119    5.65  0.000263  (-0.016070  0.002256 -0.000251)
 82:   1410.32   0.000343    1.73  0.000076  (-0.006121 -0.005293 -0.003224)
 83:   1435.61   0.000323    1.63  0.000070  ( 0.006472 -0.004341  0.003077)
 84:   1443.01   0.000038    0.19  0.000008  ( 0.002616  0.000200  0.001137)
 85:   1453.00   0.000319    1.61  0.000069  (-0.003528 -0.002222  0.007151)
 86:   1468.60   0.000707    3.57  0.000150  (-0.000496 -0.007951 -0.009314)
 87:   1473.42   0.002752   13.91  0.000583  ( 0.000841 -0.010085  0.021921)
 88:   1476.02   0.000431    2.18  0.000091  (-0.007480  0.004702 -0.003611)
 89:   1481.01   0.003665   18.52  0.000772  (-0.015639  0.010314 -0.020524)
 90:   1481.63   0.003263   16.49  0.000687  ( 0.004244  0.004928 -0.025395)
 91:   1482.23   0.000750    3.79  0.000158  ( 0.000434  0.011221  0.005638)
 92:   1484.80   0.000885    4.47  0.000186  (-0.011744 -0.006699 -0.001792)
 93:   1491.87   0.004136   20.90  0.000865  (-0.027439  0.010334  0.002351)
 94:   1504.21   0.005584   28.22  0.001159  (-0.030362 -0.003861 -0.014893)
 95:   1508.74   0.006467   32.68  0.001338  (-0.035040  0.004397  0.009515)
 96:   1517.23   0.005763   29.12  0.001185  ( 0.003023  0.032938  0.009555)
 97:   1524.66   0.003716   18.78  0.000761  ( 0.011912 -0.007995 -0.023553)
 98:   1527.49   0.006045   30.55  0.001235  (-0.010610 -0.032605 -0.007708)
 99:   1565.99   0.059220  299.28  0.011801  (-0.108593  0.002673  0.001235)
100:   1629.14   0.003468   17.53  0.000664  ( 0.003136 -0.015162 -0.020605)
101:   1640.40   0.001041    5.26  0.000198  ( 0.004935 -0.010256  0.008281)
102:   1663.39   0.000973    4.92  0.000183  ( 0.011475  0.005601  0.004418)
103:   1676.54   0.000682    3.45  0.000127  (-0.010586 -0.001799  0.003414)
104:   1688.65   0.002655   13.42  0.000491  (-0.001514 -0.020708 -0.007710)
105:   2146.45   0.005259   26.58  0.000765  (-0.023127  0.015074  0.001590)
106:   2174.42   0.003665   18.52  0.000526  (-0.001546  0.004729 -0.022389)
107:   2629.28   0.002826   14.28  0.000335  ( 0.006434  0.016225  0.005550)
108:   2686.84   0.003150   15.92  0.000366  ( 0.007067 -0.009169 -0.015225)
109:   2758.15   0.003184   16.09  0.000360  ( 0.010323  0.009835  0.012527)
110:   2798.90   0.003090   15.61  0.000345  ( 0.006766 -0.016331  0.005657)
111:   2817.69   0.001716    8.67  0.000190  (-0.008019 -0.006929  0.008814)
112:   2826.77   0.018926   95.64  0.002089  (-0.000152  0.003132 -0.045602)
113:   2833.03   0.003801   19.21  0.000419  (-0.013928 -0.014606  0.003373)
114:   2861.93   0.002556   12.92  0.000279  ( 0.012980  0.010311  0.001984)
115:   2924.97   0.001523    7.69  0.000162  ( 0.001632  0.002486  0.012393)
116:   2967.50   0.007806   39.45  0.000821  ( 0.025839  0.000170 -0.012379)
117:   2978.16   0.002356   11.90  0.000247  (-0.009409  0.012241  0.002907)
118:   3001.05   0.008656   43.74  0.000900  (-0.012747  0.002045 -0.027081)
119:   3011.99   0.002432   12.29  0.000252  (-0.007695  0.013428  0.003531)
120:   3075.92   0.000851    4.30  0.000086  ( 0.005051 -0.007386 -0.002505)
121:   3118.03   0.000697    3.52  0.000070  (-0.003501 -0.006053 -0.004572)
122:   3176.40   0.000295    1.49  0.000029  ( 0.000629  0.004953  0.002023)
123:   3186.08   0.001096    5.54  0.000107  ( 0.003722  0.009257  0.002795)
124:   3195.69   0.001218    6.16  0.000119  (-0.010458  0.000284 -0.003087)
125:   3199.04   0.001660    8.39  0.000162  (-0.011719  0.001820  0.004614)

--------------------------
THERMOCHEMISTRY AT 298.15K
--------------------------

Temperature         ... 298.15 K
Pressure            ... 1.00 atm
Total Mass          ... 277.39 AMU

Throughout the following assumptions are being made:
  (1) The electronic state is orbitally nondegenerate
  (2) There are no thermally accessible electronically excited states
  (3) Hindered rotations indicated by low frequency modes are not
      treated as such but are treated as vibrations and this may
      cause some error
  (4) All equations used are the standard statistical mechanics
      equations for an ideal gas
  (5) All vibrations are strictly harmonic

freq.      67.71  E(vib)   ...       0.50
freq.      78.39  E(vib)   ...       0.49
freq.      87.92  E(vib)   ...       0.48
freq.     125.02  E(vib)   ...       0.43
freq.     132.31  E(vib)   ...       0.42
freq.     166.50  E(vib)   ...       0.39
freq.     221.24  E(vib)   ...       0.33
freq.     239.95  E(vib)   ...       0.31
freq.     259.55  E(vib)   ...       0.30
freq.     266.85  E(vib)   ...       0.29
freq.     287.12  E(vib)   ...       0.27
freq.     318.79  E(vib)   ...       0.25
freq.     349.57  E(vib)   ...       0.23
freq.     372.89  E(vib)   ...       0.21
freq.     383.49  E(vib)   ...       0.20
freq.     391.62  E(vib)   ...       0.20
freq.     418.58  E(vib)   ...       0.18
freq.     444.59  E(vib)   ...       0.17
freq.     493.82  E(vib)   ...       0.14
freq.     505.06  E(vib)   ...       0.14
freq.     507.52  E(vib)   ...       0.14
freq.     534.76  E(vib)   ...       0.13
freq.     549.47  E(vib)   ...       0.12
freq.     556.01  E(vib)   ...       0.12
freq.     569.77  E(vib)   ...       0.11
freq.     573.87  E(vib)   ...       0.11
freq.     580.38  E(vib)   ...       0.11
freq.     582.43  E(vib)   ...       0.11
freq.     595.46  E(vib)   ...       0.10
freq.     596.93  E(vib)   ...       0.10
freq.     617.55  E(vib)   ...       0.09
freq.     706.01  E(vib)   ...       0.07
freq.     728.18  E(vib)   ...       0.06
freq.     762.64  E(vib)   ...       0.06
freq.     769.23  E(vib)   ...       0.06
freq.     790.00  E(vib)   ...       0.05
freq.     794.48  E(vib)   ...       0.05
freq.     807.96  E(vib)   ...       0.05
freq.     831.90  E(vib)   ...       0.04
freq.     853.36  E(vib)   ...       0.04
freq.     901.28  E(vib)   ...       0.03
freq.     916.90  E(vib)   ...       0.03
freq.     937.14  E(vib)   ...       0.03
freq.     943.46  E(vib)   ...       0.03
freq.     960.87  E(vib)   ...       0.03
freq.     961.98  E(vib)   ...       0.03
freq.     993.96  E(vib)   ...       0.02
freq.    1018.29  E(vib)   ...       0.02
freq.    1026.73  E(vib)   ...       0.02
freq.    1028.83  E(vib)   ...       0.02
freq.    1053.27  E(vib)   ...       0.02
freq.    1059.28  E(vib)   ...       0.02
freq.    1069.14  E(vib)   ...       0.02
freq.    1069.91  E(vib)   ...       0.02
freq.    1075.08  E(vib)   ...       0.02
freq.    1108.07  E(vib)   ...       0.02
freq.    1111.58  E(vib)   ...       0.01
freq.    1114.68  E(vib)   ...       0.01
freq.    1120.53  E(vib)   ...       0.01
freq.    1131.98  E(vib)   ...       0.01
freq.    1135.55  E(vib)   ...       0.01
freq.    1151.25  E(vib)   ...       0.01
freq.    1156.42  E(vib)   ...       0.01
freq.    1175.98  E(vib)   ...       0.01
freq.    1179.02  E(vib)   ...       0.01
freq.    1211.73  E(vib)   ...       0.01
freq.    1228.39  E(vib)   ...       0.01
freq.    1253.07  E(vib)   ...       0.01
freq.    1266.05  E(vib)   ...       0.01
freq.    1277.94  E(vib)   ...       0.01
freq.    1285.37  E(vib)   ...       0.01
freq.    1295.83  E(vib)   ...       0.01
freq.    1297.32  E(vib)   ...       0.01
freq.    1304.86  E(vib)   ...       0.01
freq.    1316.60  E(vib)   ...       0.01
freq.    1325.70  E(vib)   ...       0.01
freq.    1410.32  E(vib)   ...       0.00
freq.    1435.61  E(vib)   ...       0.00
freq.    1443.01  E(vib)   ...       0.00
freq.    1453.00  E(vib)   ...       0.00
freq.    1468.60  E(vib)   ...       0.00
freq.    1473.42  E(vib)   ...       0.00
freq.    1476.02  E(vib)   ...       0.00
freq.    1481.01  E(vib)   ...       0.00
freq.    1481.63  E(vib)   ...       0.00
freq.    1482.23  E(vib)   ...       0.00
freq.    1484.80  E(vib)   ...       0.00
freq.    1491.87  E(vib)   ...       0.00
freq.    1504.21  E(vib)   ...       0.00
freq.    1508.74  E(vib)   ...       0.00
freq.    1517.23  E(vib)   ...       0.00
freq.    1524.66  E(vib)   ...       0.00
freq.    1527.49  E(vib)   ...       0.00
freq.    1565.99  E(vib)   ...       0.00
freq.    1629.14  E(vib)   ...       0.00
freq.    1640.40  E(vib)   ...       0.00
freq.    1663.39  E(vib)   ...       0.00
freq.    1676.54  E(vib)   ...       0.00
freq.    1688.65  E(vib)   ...       0.00
freq.    2146.45  E(vib)   ...       0.00
freq.    2174.42  E(vib)   ...       0.00
freq.    2629.28  E(vib)   ...       0.00
freq.    2686.84  E(vib)   ...       0.00
freq.    2758.15  E(vib)   ...       0.00
freq.    2798.90  E(vib)   ...       0.00
freq.    2817.69  E(vib)   ...       0.00
freq.    2826.77  E(vib)   ...       0.00
freq.    2833.03  E(vib)   ...       0.00
freq.    2861.93  E(vib)   ...       0.00
freq.    2924.97  E(vib)   ...       0.00
freq.    2967.50  E(vib)   ...       0.00
freq.    2978.16  E(vib)   ...       0.00
freq.    3001.05  E(vib)   ...       0.00
freq.    3011.99  E(vib)   ...       0.00
freq.    3075.92  E(vib)   ...       0.00
freq.    3118.03  E(vib)   ...       0.00
freq.    3176.40  E(vib)   ...       0.00
freq.    3186.08  E(vib)   ...       0.00
freq.    3195.69  E(vib)   ...       0.00
freq.    3199.04  E(vib)   ...       0.00

------------
INNER ENERGY
------------

The inner energy is: U= E(el) + E(ZPE) + E(vib) + E(rot) + E(trans)
    E(el)   - is the total energy from the electronic structure calculation
              = E(kin-el) + E(nuc-el) + E(el-el) + E(nuc-nuc)
    E(ZPE)  - the the zero temperature vibrational energy from the frequency calculation
    E(vib)  - the the finite temperature correction to E(ZPE) due to population
              of excited vibrational states
    E(rot)  - is the rotational thermal energy
    E(trans)- is the translational thermal energy

Summary of contributions to the inner energy U:
Electronic energy                ...   -845.20022078 Eh
Zero point energy                ...      0.35261294 Eh     221.27 kcal/mol
Thermal vibrational correction   ...      0.01320802 Eh       8.29 kcal/mol
Thermal rotational correction    ...      0.00141627 Eh       0.89 kcal/mol
Thermal translational correction ...      0.00141627 Eh       0.89 kcal/mol
-----------------------------------------------------------------------
Total thermal energy                   -844.83156728 Eh

Rotational constants in cm-1:     0.022887     0.005926     0.005092

                             ****ORCA TERMINATED NORMALLY****
TOTAL RUN TIME: 0 days 1 hours 44 minutes 30 seconds 711 msec
