                         Program Version 5.0.4 -  RELEASE  -
|  1> # ORCA 5.0.4 - /users/bwb16179/postgrad/2024_03/DFT_Crest_Conformers/Opt/prot/8_prot_aq_4.inp # write input file
|  2> # Basic Mode
|  3> #
|  4> ! Opt Freq wB97X Def2-SVP D4 SlowConv TightSCF Defgrid2 Def2/J RIJCOSX CPCM(Water)
|  5>
|  6>
|  7>
|  8> %maxcore 4500
|  9>
| 10> %geom
| 11> Maxiter 150
| 12> END
| 13>
| 14> * xyzfile 1 1 8_prot_aq_4.xyz
| 15>
| 16>                          ****END OF INPUT****
 Total Charge           Charge          ....    1
 Multiplicity           Mult            ....    1
 Number of Electrons    NEL             ....  148
Dispersion correction           -0.009505622
FINAL SINGLE POINT ENERGY      -845.245822389575
Dispersion correction            ... Starting D4
                    ***********************HURRAY********************

CARTESIAN COORDINATES (ANGSTROEM)
---------------------------------
  N     -1.081048    0.014802    0.515137
  C      0.000010   -0.000410   -0.261597
  N      1.081102   -0.013957    0.515118
  H     -0.000019   -0.001587   -1.352588
  C      0.679636   -0.007225    1.838209
  C     -0.679518    0.010854    1.838222
  C     -2.443432    0.026961    0.040315
  C      2.443468   -0.026949    0.040280
  C     -3.044584   -1.199460   -0.271960
  C     -3.089148    1.264650   -0.080333
  C      3.089368   -1.264789   -0.077726
  C      3.044392    1.198904   -0.274653
  H      1.399105   -0.015093    2.654745
  H     -1.398945    0.020600    2.654776
  C     -4.365218   -1.161648   -0.728870
  C     -2.297369   -2.499344   -0.130824
  C     -4.408516    1.251190   -0.541287
  C      4.408741   -1.252099   -0.538686
  C      5.038747   -0.052049   -0.861637
  C      4.365028    1.160338   -0.731490
  C     -5.038733    0.050559   -0.861653
  H     -4.943146    2.199321   -0.648344
  C      2.296879    2.498921   -0.136314
  C      2.390996   -2.550047    0.279154
  H      4.943531   -2.200367   -0.643721
  H      6.072077   -0.061966   -1.219480
  H      4.867334    2.098246   -0.985122
  H     -6.072070    0.059873   -1.219493
  H     -4.867701   -2.100032   -0.980385
  C     -2.390607    2.550571    0.273838
  H     -1.839643   -2.597364    0.866083
  H     -1.485456   -2.574917   -0.872732
  H     -2.974109   -3.350213   -0.285173
  H     -2.166050    2.597310    1.351565
  H     -3.020621    3.413449    0.020359
  H     -1.434463    2.651875   -0.263955
  H      2.166625   -2.594629    1.357011
  H      3.021020   -3.413385    0.027271
  H      1.434760   -2.652478   -0.258265
  H      1.839352    2.599047    0.860479
  H      1.484764    2.572585   -0.878196
  H      2.973353    3.349620   -0.292740

 Multiplicity           Mult            ....    1
 Number of Electrons    NEL             ....  148
 Basis Dimension        Dim             ....  399

ORBITAL ENERGIES
----------------

  NO   OCC          E(Eh)            E(eV)
   0   2.0000     -14.523689      -395.2097
   1   2.0000     -14.523669      -395.2091
   2   2.0000     -10.396921      -282.9146
   3   2.0000     -10.344153      -281.4787
   4   2.0000     -10.343566      -281.4627
   5   2.0000     -10.333268      -281.1825
   6   2.0000     -10.333224      -281.1813
   7   2.0000     -10.304728      -280.4059
   8   2.0000     -10.304725      -280.4058
   9   2.0000     -10.304563      -280.4014
  10   2.0000     -10.304560      -280.4013
  11   2.0000     -10.288439      -279.9627
  12   2.0000     -10.288438      -279.9626
  13   2.0000     -10.283465      -279.8273
  14   2.0000     -10.283463      -279.8272
  15   2.0000     -10.283445      -279.8268
  16   2.0000     -10.283444      -279.8267
  17   2.0000     -10.278222      -279.6846
  18   2.0000     -10.278219      -279.6846
  19   2.0000     -10.278014      -279.6790
  20   2.0000     -10.278010      -279.6789
  21   2.0000      -1.228272       -33.4230
  22   2.0000      -1.112593       -30.2752
  23   2.0000      -1.016645       -27.6643
  24   2.0000      -0.997195       -27.1351
  25   2.0000      -0.940899       -25.6032
  26   2.0000      -0.925780       -25.1918
  27   2.0000      -0.925342       -25.1798
  28   2.0000      -0.912889       -24.8410
  29   2.0000      -0.890156       -24.2224
  30   2.0000      -0.850293       -23.1377
  31   2.0000      -0.829036       -22.5592
  32   2.0000      -0.811568       -22.0839
  33   2.0000      -0.810461       -22.0538
  34   2.0000      -0.786106       -21.3910
  35   2.0000      -0.785709       -21.3802
  36   2.0000      -0.736476       -20.0405
  37   2.0000      -0.728909       -19.8346
  38   2.0000      -0.715199       -19.4615
  39   2.0000      -0.711843       -19.3702
  40   2.0000      -0.683352       -18.5950
  41   2.0000      -0.648130       -17.6365
  42   2.0000      -0.643393       -17.5076
  43   2.0000      -0.613747       -16.7009
  44   2.0000      -0.612367       -16.6634
  45   2.0000      -0.591704       -16.1011
  46   2.0000      -0.590833       -16.0774
  47   2.0000      -0.582439       -15.8490
  48   2.0000      -0.575587       -15.6625
  49   2.0000      -0.575230       -15.6528
  50   2.0000      -0.547370       -14.8947
  51   2.0000      -0.545751       -14.8506
  52   2.0000      -0.539821       -14.6893
  53   2.0000      -0.538682       -14.6583
  54   2.0000      -0.531231       -14.4555
  55   2.0000      -0.527946       -14.3661
  56   2.0000      -0.524830       -14.2813
  57   2.0000      -0.524781       -14.2800
  58   2.0000      -0.517552       -14.0833
  59   2.0000      -0.515276       -14.0214
  60   2.0000      -0.488002       -13.2792
  61   2.0000      -0.485492       -13.2109
  62   2.0000      -0.477476       -12.9928
  63   2.0000      -0.472287       -12.8516
  64   2.0000      -0.470201       -12.7948
  65   2.0000      -0.461995       -12.5715
  66   2.0000      -0.458509       -12.4767
  67   2.0000      -0.458158       -12.4671
  68   2.0000      -0.433032       -11.7834
  69   2.0000      -0.384649       -10.4668
  70   2.0000      -0.364928        -9.9302
  71   2.0000      -0.361288        -9.8312
  72   2.0000      -0.348227        -9.4757
  73   2.0000      -0.347603        -9.4588
  74   0.0000       0.043333         1.1792
  75   0.0000       0.045553         1.2396
  76   0.0000       0.053999         1.4694
  77   0.0000       0.062363         1.6970
  78   0.0000       0.062529         1.7015

MULLIKEN ATOMIC CHARGES
-----------------------
   0 N :   -0.188900
   1 C :    0.258105
   2 N :   -0.188902
   3 H :    0.146351
   4 C :    0.088115
   5 C :    0.088100
   6 C :    0.012354
   7 C :    0.012354
   8 C :   -0.078088
   9 C :   -0.077340
  10 C :   -0.077346
  11 C :   -0.078108
  12 H :    0.111268
  13 H :    0.111270
  14 C :   -0.087394
  15 C :    0.058807
  16 C :   -0.088260
  17 C :   -0.088255
  18 C :    0.019993
  19 C :   -0.087392
  20 C :    0.020009
  21 H :    0.032504
  22 C :    0.058819
  23 C :    0.063255
  24 H :    0.032508
  25 H :    0.045244
  26 H :    0.032513
  27 H :    0.045242
  28 H :    0.032511
  29 C :    0.063256
  30 H :    0.057928
  31 H :    0.070689
  32 H :    0.050604
  33 H :    0.067190
  34 H :    0.050266
  35 H :    0.057018
  36 H :    0.067200
  37 H :    0.050273
  38 H :    0.057008
  39 H :    0.057940
  40 H :    0.070689
  41 H :    0.050605
Sum of atomic charges:    1.0000000

LOEWDIN ATOMIC CHARGES
----------------------
   0 N :    0.113045
   1 C :    0.146622
   2 N :    0.113045
   3 H :    0.077549
   4 C :    0.031401
   5 C :    0.031396
   6 C :   -0.010066
   7 C :   -0.010069
   8 C :   -0.013836
   9 C :   -0.013668
  10 C :   -0.013671
  11 C :   -0.013838
  12 H :    0.066862
  13 H :    0.066862
  14 C :   -0.036663
  15 C :   -0.052546
  16 C :   -0.036629
  17 C :   -0.036626
  18 C :   -0.009172
  19 C :   -0.036664
  20 C :   -0.009169
  21 H :    0.042737
  22 C :   -0.052546
  23 C :   -0.051945
  24 H :    0.042739
  25 H :    0.045942
  26 H :    0.042729
  27 H :    0.045942
  28 H :    0.042728
  29 C :   -0.051945
  30 H :    0.043253
  31 H :    0.047413
  32 H :    0.044471
  33 H :    0.047232
  34 H :    0.044213
  35 H :    0.043142
  36 H :    0.047237
  37 H :    0.044215
  38 H :    0.043138
  39 H :    0.043261
  40 H :    0.047408
  41 H :    0.044470

  Mayer bond orders larger than 0.100000
B(  0-N ,  1-C ) :   1.3358 B(  0-N ,  5-C ) :   1.1431 B(  0-N ,  6-C ) :   0.8883
B(  1-C ,  2-N ) :   1.3358 B(  1-C ,  3-H ) :   0.9667 B(  2-N ,  4-C ) :   1.1431
B(  2-N ,  7-C ) :   0.8883 B(  4-C ,  5-C ) :   1.5953 B(  4-C , 12-H ) :   0.9883
B(  5-C , 13-H ) :   0.9883 B(  6-C ,  8-C ) :   1.4232 B(  6-C ,  9-C ) :   1.4214
B(  7-C , 10-C ) :   1.4214 B(  7-C , 11-C ) :   1.4232 B(  8-C , 14-C ) :   1.3979
B(  8-C , 15-C ) :   1.0483 B(  9-C , 16-C ) :   1.3996 B(  9-C , 29-C ) :   1.0483
B( 10-C , 17-C ) :   1.3996 B( 10-C , 23-C ) :   1.0483 B( 11-C , 19-C ) :   1.3979
B( 11-C , 22-C ) :   1.0483 B( 14-C , 20-C ) :   1.3824 B( 14-C , 28-H ) :   0.9942
B( 15-C , 30-H ) :   0.9566 B( 15-C , 31-H ) :   0.9517 B( 15-C , 32-H ) :   0.9545
B( 16-C , 20-C ) :   1.3807 B( 16-C , 21-H ) :   0.9942 B( 17-C , 18-C ) :   1.3807
B( 17-C , 24-H ) :   0.9942 B( 18-C , 19-C ) :   1.3824 B( 18-C , 25-H ) :   0.9937
B( 19-C , 26-H ) :   0.9942 B( 20-C , 27-H ) :   0.9937 B( 22-C , 39-H ) :   0.9566
B( 22-C , 40-H ) :   0.9517 B( 22-C , 41-H ) :   0.9545 B( 23-C , 36-H ) :   0.9516
B( 23-C , 37-H ) :   0.9553 B( 23-C , 38-H ) :   0.9558 B( 29-C , 33-H ) :   0.9516
B( 29-C , 34-H ) :   0.9553 B( 29-C , 35-H ) :   0.9558

Dispersion correction           -0.009505561
FINAL SINGLE POINT ENERGY      -845.245822756756

DIPOLE MOMENT
-------------
                                X             Y             Z
Electronic contribution:      0.00044       0.00060       0.72707
Nuclear contribution   :     -0.00043      -0.00001      -0.10017
                        -----------------------------------------
Total Dipole Moment    :      0.00001       0.00059       0.62690
                        -----------------------------------------
Magnitude (a.u.)       :      0.62690
Magnitude (Debye)      :      1.59346

Dispersion correction in the Hessian             ... Starting D4

VIBRATIONAL FREQUENCIES
-----------------------

Scaling factor for frequencies =  1.000000000  (already applied!)

   0:         0.00 cm**-1
   1:         0.00 cm**-1
   2:         0.00 cm**-1
   3:         0.00 cm**-1
   4:         0.00 cm**-1
   5:         0.00 cm**-1
   6:         6.04 cm**-1
   7:         7.86 cm**-1
   8:        51.81 cm**-1
   9:        59.83 cm**-1
  10:        88.28 cm**-1
  11:        90.02 cm**-1
  12:       112.62 cm**-1
  13:       120.63 cm**-1
  14:       122.31 cm**-1
  15:       134.17 cm**-1
  16:       149.07 cm**-1
  17:       196.79 cm**-1
  18:       209.80 cm**-1
  19:       234.91 cm**-1
  20:       235.32 cm**-1
  21:       283.76 cm**-1
  22:       304.37 cm**-1
  23:       333.87 cm**-1
  24:       357.12 cm**-1
  25:       358.44 cm**-1
  26:       393.80 cm**-1
  27:       427.43 cm**-1
  28:       481.98 cm**-1
  29:       492.95 cm**-1
  30:       537.45 cm**-1
  31:       537.51 cm**-1
  32:       540.98 cm**-1
  33:       545.81 cm**-1
  34:       568.61 cm**-1
  35:       593.38 cm**-1
  36:       594.38 cm**-1
  37:       620.18 cm**-1
  38:       691.78 cm**-1
  39:       693.07 cm**-1
  40:       765.98 cm**-1
  41:       768.45 cm**-1
  42:       775.40 cm**-1
  43:       776.54 cm**-1
  44:       783.26 cm**-1
  45:       808.08 cm**-1
  46:       808.44 cm**-1
  47:       899.38 cm**-1
  48:       911.49 cm**-1
  49:       940.71 cm**-1
  50:       940.85 cm**-1
  51:       945.60 cm**-1
  52:       946.90 cm**-1
  53:       970.93 cm**-1
  54:       980.65 cm**-1
  55:      1010.43 cm**-1
  56:      1010.65 cm**-1
  57:      1040.73 cm**-1
  58:      1040.76 cm**-1
  59:      1057.28 cm**-1
  60:      1057.38 cm**-1
  61:      1060.85 cm**-1
  62:      1060.92 cm**-1
  63:      1064.42 cm**-1
  64:      1064.87 cm**-1
  65:      1080.87 cm**-1
  66:      1093.37 cm**-1
  67:      1110.48 cm**-1
  68:      1120.55 cm**-1
  69:      1146.54 cm**-1
  70:      1175.24 cm**-1
  71:      1175.26 cm**-1
  72:      1246.64 cm**-1
  73:      1262.77 cm**-1
  74:      1281.44 cm**-1
  75:      1281.72 cm**-1
  76:      1300.01 cm**-1
  77:      1308.00 cm**-1
  78:      1332.48 cm**-1
  79:      1332.96 cm**-1
  80:      1382.59 cm**-1
  81:      1395.55 cm**-1
  82:      1395.73 cm**-1
  83:      1402.39 cm**-1
  84:      1407.11 cm**-1
  85:      1425.43 cm**-1
  86:      1440.40 cm**-1
  87:      1442.65 cm**-1
  88:      1448.61 cm**-1
  89:      1449.28 cm**-1
  90:      1451.33 cm**-1
  91:      1451.66 cm**-1
  92:      1452.73 cm**-1
  93:      1452.97 cm**-1
  94:      1474.19 cm**-1
  95:      1527.14 cm**-1
  96:      1535.80 cm**-1
  97:      1536.22 cm**-1
  98:      1550.26 cm**-1
  99:      1644.81 cm**-1
 100:      1645.27 cm**-1
 101:      1695.07 cm**-1
 102:      1695.72 cm**-1
 103:      1707.53 cm**-1
 104:      1708.32 cm**-1
 105:      3067.25 cm**-1
 106:      3067.45 cm**-1
 107:      3069.30 cm**-1
 108:      3069.52 cm**-1
 109:      3155.90 cm**-1
 110:      3155.96 cm**-1
 111:      3157.66 cm**-1
 112:      3157.80 cm**-1
 113:      3191.86 cm**-1
 114:      3191.91 cm**-1
 115:      3192.74 cm**-1
 116:      3192.77 cm**-1
 117:      3214.38 cm**-1
 118:      3214.39 cm**-1
 119:      3221.87 cm**-1
 120:      3221.87 cm**-1
 121:      3233.68 cm**-1
 122:      3233.69 cm**-1
 123:      3295.94 cm**-1
 124:      3300.84 cm**-1
 125:      3319.19 cm**-1

IR SPECTRUM
-----------

 Mode   freq       eps      Int      T**2         TX        TY        TZ
       cm**-1   L/(mol*cm) km/mol    a.u.
----------------------------------------------------------------------------
  6:      6.04   0.000067    0.34  0.003471  (-0.010976  0.052392 -0.024609)
  7:      7.86   0.000053    0.27  0.002096  ( 0.007729 -0.036174 -0.026972)
  8:     51.81   0.000103    0.52  0.000622  (-0.000014 -0.000006 -0.024948)
  9:     59.83   0.000009    0.04  0.000046  (-0.005109  0.004490  0.000014)
 10:     88.28   0.000005    0.03  0.000018  ( 0.000351  0.000064  0.004273)
 11:     90.02   0.000020    0.10  0.000071  (-0.007579 -0.003678  0.000244)
 12:    112.62   0.000057    0.29  0.000157  ( 0.000044 -0.000053 -0.012524)
 13:    120.63   0.000489    2.47  0.001265  (-0.000134 -0.000096 -0.035569)
 14:    122.31   0.000043    0.22  0.000110  (-0.008061  0.006702 -0.000038)
 15:    134.17   0.000058    0.29  0.000134  ( 0.011318  0.002512 -0.000289)
 16:    149.07   0.000001    0.00  0.000002  ( 0.000147 -0.000002 -0.001242)
 17:    196.79   0.000102    0.52  0.000162  (-0.012084 -0.004053 -0.000011)
 18:    209.80   0.000117    0.59  0.000174  (-0.000067 -0.000050 -0.013174)
 19:    234.91   0.000005    0.03  0.000007  ( 0.000060  0.000250  0.002568)
 20:    235.32   0.000004    0.02  0.000005  ( 0.000476  0.002085 -0.000304)
 21:    283.76   0.000018    0.09  0.000020  ( 0.004386  0.000901  0.000053)
 22:    304.37   0.000002    0.01  0.000002  (-0.000372 -0.001508 -0.000009)
 23:    333.87   0.003612   18.25  0.003376  ( 0.000002 -0.000058 -0.058102)
 24:    357.12   0.002008   10.15  0.001754  ( 0.000027  0.000048  0.041886)
 25:    358.44   0.000012    0.06  0.000010  ( 0.000015  0.000014  0.003176)
 26:    393.80   0.000049    0.25  0.000039  (-0.004414 -0.004376 -0.000016)
 27:    427.43   0.001718    8.68  0.001254  ( 0.035383  0.001533 -0.000018)
 28:    481.98   0.000324    1.64  0.000210  ( 0.001412 -0.014420  0.000017)
 29:    492.95   0.000000    0.00  0.000000  (-0.000001 -0.000010 -0.000387)
 30:    537.45   0.000031    0.16  0.000018  ( 0.000840 -0.004186  0.000105)
 31:    537.51   0.000002    0.01  0.000001  (-0.000220  0.001023  0.000320)
 32:    540.98   0.001163    5.88  0.000671  (-0.000512  0.025895 -0.000031)
 33:    545.81   0.000006    0.03  0.000004  ( 0.000000  0.000024 -0.001882)
 34:    568.61   0.000751    3.79  0.000412  (-0.000009 -0.000021 -0.020301)
 35:    593.38   0.000010    0.05  0.000005  ( 0.000189 -0.000002 -0.002248)
 36:    594.38   0.000368    1.86  0.000193  (-0.013899 -0.000232 -0.000035)
 37:    620.18   0.000129    0.65  0.000065  (-0.008014 -0.000657  0.000002)
 38:    691.78   0.013579   68.62  0.006125  ( 0.001245 -0.078256  0.000088)
 39:    693.07   0.000024    0.12  0.000011  (-0.000009  0.000117  0.003278)
 40:    765.98   0.008661   43.77  0.003528  ( 0.000891  0.059394 -0.000045)
 41:    768.45   0.000016    0.08  0.000007  (-0.000005 -0.000228  0.002562)
 42:    775.40   0.000245    1.24  0.000099  ( 0.000049 -0.000010  0.009936)
 43:    776.54   0.000207    1.04  0.000083  (-0.008989 -0.001501  0.000008)
 44:    783.26   0.000082    0.41  0.000033  (-0.005229  0.002299 -0.000068)
 45:    808.08   0.017134   86.59  0.006617  (-0.005231 -0.001788 -0.081156)
 46:    808.44   0.002994   15.13  0.001156  (-0.029229 -0.009425  0.014585)
 47:    899.38   0.005517   27.88  0.001914  (-0.000406 -0.043752  0.000056)
 48:    911.49   0.000002    0.01  0.000001  ( 0.000021 -0.000030 -0.000837)
 49:    940.71   0.000019    0.09  0.000006  (-0.000951  0.001524  0.001717)
 50:    940.85   0.000021    0.10  0.000007  (-0.001177  0.001897 -0.001370)
 51:    945.60   0.000046    0.23  0.000015  ( 0.000049 -0.000379 -0.003890)
 52:    946.90   0.001004    5.07  0.000331  (-0.001836  0.018095 -0.000114)
 53:    970.93   0.003602   18.20  0.001158  (-0.034021 -0.000415 -0.000014)
 54:    980.65   0.000028    0.14  0.000009  (-0.000017 -0.000010  0.003001)
 55:   1010.43   0.001615    8.16  0.000499  ( 0.022267  0.000012  0.001705)
 56:   1010.65   0.000318    1.61  0.000098  ( 0.004156 -0.000036 -0.008994)
 57:   1040.73   0.000341    1.72  0.000102  ( 0.001740 -0.003750  0.009221)
 58:   1040.76   0.000612    3.09  0.000184  (-0.001248  0.002663  0.013223)
 59:   1057.28   0.001808    9.13  0.000534  (-0.000193  0.000410 -0.023093)
 60:   1057.38   0.000109    0.55  0.000032  (-0.002156  0.004917  0.001860)
 61:   1060.85   0.000582    2.94  0.000171  (-0.009851  0.007454 -0.004310)
 62:   1060.92   0.003344   16.90  0.000984  ( 0.001338 -0.001165 -0.031313)
 63:   1064.42   0.000259    1.31  0.000076  ( 0.000026 -0.000641  0.008688)
 64:   1064.87   0.000821    4.15  0.000241  (-0.002320  0.015334  0.000183)
 65:   1080.87   0.007486   37.83  0.002161  ( 0.046489  0.000011 -0.000001)
 66:   1093.37   0.004473   22.60  0.001277  (-0.000029 -0.000065 -0.035729)
 67:   1110.48   0.000043    0.22  0.000012  (-0.000059  0.000023  0.003495)
 68:   1120.55   0.010351   52.31  0.002883  (-0.053689  0.000392  0.000032)
 69:   1146.54   0.000166    0.84  0.000045  ( 0.000016 -0.000007 -0.006718)
 70:   1175.24   0.000599    3.03  0.000159  (-0.000555  0.012577  0.000768)
 71:   1175.26   0.001315    6.65  0.000349  ( 0.000852 -0.018660  0.000552)
 72:   1246.64   0.012523   63.29  0.003135  (-0.055987  0.000575 -0.000005)
 73:   1262.77   0.008285   41.87  0.002047  (-0.045244  0.000541 -0.000004)
 74:   1281.44   0.000000    0.00  0.000000  ( 0.000048  0.000199 -0.000064)
 75:   1281.72   0.000049    0.25  0.000012  (-0.000704 -0.003396  0.000009)
 76:   1300.01   0.000009    0.04  0.000002  (-0.000016  0.000015  0.001455)
 77:   1308.00   0.001610    8.13  0.000384  (-0.019597 -0.000036  0.000006)
 78:   1332.48   0.000036    0.18  0.000008  ( 0.000006 -0.000625 -0.002824)
 79:   1332.96   0.008319   42.04  0.001948  (-0.001041  0.044118 -0.000086)
 80:   1382.59   0.000832    4.21  0.000188  (-0.000013 -0.000016 -0.013707)
 81:   1395.55   0.000119    0.60  0.000027  (-0.004961  0.001383 -0.000204)
 82:   1395.73   0.000043    0.22  0.000010  (-0.000359  0.000118  0.003077)
 83:   1402.39   0.001352    6.83  0.000301  (-0.017288  0.001441 -0.000034)
 84:   1407.11   0.000016    0.08  0.000003  (-0.000023 -0.000006 -0.001868)
 85:   1425.43   0.000382    1.93  0.000084  ( 0.008750  0.002658 -0.000033)
 86:   1440.40   0.001617    8.17  0.000350  ( 0.000189  0.000080 -0.018717)
 87:   1442.65   0.002170   10.96  0.000469  ( 0.021098  0.004921  0.000073)
 88:   1448.61   0.000728    3.68  0.000157  (-0.000337  0.000100 -0.012518)
 89:   1449.28   0.004631   23.40  0.000997  (-0.012044  0.029189 -0.000191)
 90:   1451.33   0.006681   33.76  0.001436  ( 0.006713  0.002208 -0.037236)
 91:   1451.66   0.003264   16.50  0.000702  ( 0.022169  0.008617  0.011661)
 92:   1452.73   0.003487   17.62  0.000749  (-0.000550 -0.000289 -0.027360)
 93:   1452.97   0.000444    2.25  0.000095  (-0.007897 -0.004515  0.003567)
 94:   1474.19   0.000475    2.40  0.000101  (-0.000000 -0.000005 -0.010028)
 95:   1527.14   0.012559   63.47  0.002566  ( 0.050647  0.001126  0.000005)
 96:   1535.80   0.000069    0.35  0.000014  (-0.000030  0.000164  0.003729)
 97:   1536.22   0.011484   58.04  0.002333  ( 0.003167 -0.048195  0.000056)
 98:   1550.26   0.003243   16.39  0.000653  (-0.000005 -0.000012 -0.025551)
 99:   1644.81   0.000973    4.92  0.000185  ( 0.000557 -0.000023 -0.013575)
100:   1645.27   0.055735  281.66  0.010571  (-0.102805  0.001620 -0.000072)
101:   1695.07   0.002614   13.21  0.000481  ( 0.021938 -0.000049 -0.000011)
102:   1695.72   0.000271    1.37  0.000050  ( 0.000019  0.000001  0.007059)
103:   1707.53   0.000046    0.23  0.000008  ( 0.000002  0.000112  0.002896)
104:   1708.32   0.006327   31.97  0.001156  (-0.000287  0.033995 -0.000046)
105:   3067.25   0.007061   35.68  0.000718  ( 0.009817 -0.024938 -0.000354)
106:   3067.45   0.000208    1.05  0.000021  ( 0.001134 -0.002885  0.003398)
107:   3069.30   0.000514    2.60  0.000052  (-0.004144 -0.002823  0.005211)
108:   3069.52   0.004294   21.70  0.000437  (-0.017073 -0.011982 -0.001237)
109:   3155.90   0.000963    4.87  0.000095  (-0.001787 -0.003278 -0.009018)
110:   3155.96   0.002123   10.73  0.000210  (-0.001066 -0.002035  0.014307)
111:   3157.66   0.000809    4.09  0.000080  ( 0.005383  0.002129  0.006812)
112:   3157.80   0.000805    4.07  0.000080  ( 0.005595  0.002235 -0.006579)
113:   3191.86   0.003455   17.46  0.000338  (-0.010960 -0.014749  0.000368)
114:   3191.91   0.000335    1.69  0.000033  (-0.000718 -0.000860 -0.005612)
115:   3192.74   0.003496   17.67  0.000342  (-0.014142  0.011879  0.000791)
116:   3192.77   0.000335    1.69  0.000033  ( 0.003828 -0.003134  0.002870)
117:   3214.38   0.000068    0.35  0.000007  ( 0.002528 -0.000493  0.000019)
118:   3214.39   0.000012    0.06  0.000001  (-0.000046  0.000010  0.001069)
119:   3221.87   0.001342    6.78  0.000130  ( 0.000018  0.011363  0.000906)
120:   3221.87   0.001486    7.51  0.000144  ( 0.000017  0.011964 -0.000885)
121:   3233.68   0.002807   14.18  0.000271  (-0.016448  0.000528  0.000187)
122:   3233.69   0.000294    1.49  0.000028  (-0.000584  0.000013 -0.005296)
123:   3295.94   0.015217   76.90  0.001441  ( 0.000002  0.000044  0.037957)
124:   3300.84   0.007625   38.53  0.000721  (-0.026849  0.000106  0.000003)
125:   3319.19   0.004026   20.35  0.000379  (-0.000001  0.000025  0.019457)

--------------------------
THERMOCHEMISTRY AT 298.15K
--------------------------

Temperature         ... 298.15 K
Pressure            ... 1.00 atm
Total Mass          ... 277.39 AMU

Throughout the following assumptions are being made:
  (1) The electronic state is orbitally nondegenerate
  (2) There are no thermally accessible electronically excited states
  (3) Hindered rotations indicated by low frequency modes are not
      treated as such but are treated as vibrations and this may
      cause some error
  (4) All equations used are the standard statistical mechanics
      equations for an ideal gas
  (5) All vibrations are strictly harmonic

freq.       6.04  E(vib)   ...       0.58
freq.       7.86  E(vib)   ...       0.58
freq.      51.81  E(vib)   ...       0.52
freq.      59.83  E(vib)   ...       0.51
freq.      88.28  E(vib)   ...       0.48
freq.      90.02  E(vib)   ...       0.47
freq.     112.62  E(vib)   ...       0.45
freq.     120.63  E(vib)   ...       0.44
freq.     122.31  E(vib)   ...       0.43
freq.     134.17  E(vib)   ...       0.42
freq.     149.07  E(vib)   ...       0.40
freq.     196.79  E(vib)   ...       0.36
freq.     209.80  E(vib)   ...       0.34
freq.     234.91  E(vib)   ...       0.32
freq.     235.32  E(vib)   ...       0.32
freq.     283.76  E(vib)   ...       0.28
freq.     304.37  E(vib)   ...       0.26
freq.     333.87  E(vib)   ...       0.24
freq.     357.12  E(vib)   ...       0.22
freq.     358.44  E(vib)   ...       0.22
freq.     393.80  E(vib)   ...       0.20
freq.     427.43  E(vib)   ...       0.18
freq.     481.98  E(vib)   ...       0.15
freq.     492.95  E(vib)   ...       0.14
freq.     537.45  E(vib)   ...       0.12
freq.     537.51  E(vib)   ...       0.12
freq.     540.98  E(vib)   ...       0.12
freq.     545.81  E(vib)   ...       0.12
freq.     568.61  E(vib)   ...       0.11
freq.     593.38  E(vib)   ...       0.10
freq.     594.38  E(vib)   ...       0.10
freq.     620.18  E(vib)   ...       0.09
freq.     691.78  E(vib)   ...       0.07
freq.     693.07  E(vib)   ...       0.07
freq.     765.98  E(vib)   ...       0.06
freq.     768.45  E(vib)   ...       0.06
freq.     775.40  E(vib)   ...       0.05
freq.     776.54  E(vib)   ...       0.05
freq.     783.26  E(vib)   ...       0.05
freq.     808.08  E(vib)   ...       0.05
freq.     808.44  E(vib)   ...       0.05
freq.     899.38  E(vib)   ...       0.03
freq.     911.49  E(vib)   ...       0.03
freq.     940.71  E(vib)   ...       0.03
freq.     940.85  E(vib)   ...       0.03
freq.     945.60  E(vib)   ...       0.03
freq.     946.90  E(vib)   ...       0.03
freq.     970.93  E(vib)   ...       0.03
freq.     980.65  E(vib)   ...       0.02
freq.    1010.43  E(vib)   ...       0.02
freq.    1010.65  E(vib)   ...       0.02
freq.    1040.73  E(vib)   ...       0.02
freq.    1040.76  E(vib)   ...       0.02
freq.    1057.28  E(vib)   ...       0.02
freq.    1057.38  E(vib)   ...       0.02
freq.    1060.85  E(vib)   ...       0.02
freq.    1060.92  E(vib)   ...       0.02
freq.    1064.42  E(vib)   ...       0.02
freq.    1064.87  E(vib)   ...       0.02
freq.    1080.87  E(vib)   ...       0.02
freq.    1093.37  E(vib)   ...       0.02
freq.    1110.48  E(vib)   ...       0.02
freq.    1120.55  E(vib)   ...       0.01
freq.    1146.54  E(vib)   ...       0.01
freq.    1175.24  E(vib)   ...       0.01
freq.    1175.26  E(vib)   ...       0.01
freq.    1246.64  E(vib)   ...       0.01
freq.    1262.77  E(vib)   ...       0.01
freq.    1281.44  E(vib)   ...       0.01
freq.    1281.72  E(vib)   ...       0.01
freq.    1300.01  E(vib)   ...       0.01
freq.    1308.00  E(vib)   ...       0.01
freq.    1332.48  E(vib)   ...       0.01
freq.    1332.96  E(vib)   ...       0.01
freq.    1382.59  E(vib)   ...       0.01
freq.    1395.55  E(vib)   ...       0.00
freq.    1395.73  E(vib)   ...       0.00
freq.    1402.39  E(vib)   ...       0.00
freq.    1407.11  E(vib)   ...       0.00
freq.    1425.43  E(vib)   ...       0.00
freq.    1440.40  E(vib)   ...       0.00
freq.    1442.65  E(vib)   ...       0.00
freq.    1448.61  E(vib)   ...       0.00
freq.    1449.28  E(vib)   ...       0.00
freq.    1451.33  E(vib)   ...       0.00
freq.    1451.66  E(vib)   ...       0.00
freq.    1452.73  E(vib)   ...       0.00
freq.    1452.97  E(vib)   ...       0.00
freq.    1474.19  E(vib)   ...       0.00
freq.    1527.14  E(vib)   ...       0.00
freq.    1535.80  E(vib)   ...       0.00
freq.    1536.22  E(vib)   ...       0.00
freq.    1550.26  E(vib)   ...       0.00
freq.    1644.81  E(vib)   ...       0.00
freq.    1645.27  E(vib)   ...       0.00
freq.    1695.07  E(vib)   ...       0.00
freq.    1695.72  E(vib)   ...       0.00
freq.    1707.53  E(vib)   ...       0.00
freq.    1708.32  E(vib)   ...       0.00
freq.    3067.25  E(vib)   ...       0.00
freq.    3067.45  E(vib)   ...       0.00
freq.    3069.30  E(vib)   ...       0.00
freq.    3069.52  E(vib)   ...       0.00
freq.    3155.90  E(vib)   ...       0.00
freq.    3155.96  E(vib)   ...       0.00
freq.    3157.66  E(vib)   ...       0.00
freq.    3157.80  E(vib)   ...       0.00
freq.    3191.86  E(vib)   ...       0.00
freq.    3191.91  E(vib)   ...       0.00
freq.    3192.74  E(vib)   ...       0.00
freq.    3192.77  E(vib)   ...       0.00
freq.    3214.38  E(vib)   ...       0.00
freq.    3214.39  E(vib)   ...       0.00
freq.    3221.87  E(vib)   ...       0.00
freq.    3221.87  E(vib)   ...       0.00
freq.    3233.68  E(vib)   ...       0.00
freq.    3233.69  E(vib)   ...       0.00
freq.    3295.94  E(vib)   ...       0.00
freq.    3300.84  E(vib)   ...       0.00
freq.    3319.19  E(vib)   ...       0.00

------------
INNER ENERGY
------------

The inner energy is: U= E(el) + E(ZPE) + E(vib) + E(rot) + E(trans)
    E(el)   - is the total energy from the electronic structure calculation
              = E(kin-el) + E(nuc-el) + E(el-el) + E(nuc-nuc)
    E(ZPE)  - the the zero temperature vibrational energy from the frequency calculation
    E(vib)  - the the finite temperature correction to E(ZPE) due to population
              of excited vibrational states
    E(rot)  - is the rotational thermal energy
    E(trans)- is the translational thermal energy

Summary of contributions to the inner energy U:
Electronic energy                ...   -845.24582276 Eh
Zero point energy                ...      0.35894878 Eh     225.24 kcal/mol
Thermal vibrational correction   ...      0.01687304 Eh      10.59 kcal/mol
Thermal rotational correction    ...      0.00141627 Eh       0.89 kcal/mol
Thermal translational correction ...      0.00141627 Eh       0.89 kcal/mol
-----------------------------------------------------------------------
Total thermal energy                   -844.86716839 Eh

Rotational constants in cm-1:     0.023145     0.005946     0.005198

                             ****ORCA TERMINATED NORMALLY****
TOTAL RUN TIME: 0 days 2 hours 28 minutes 35 seconds 27 msec
