                         Program Version 5.0.4 -  RELEASE  -
|  1> # ORCA 5.0.4 - /users/bwb16179/postgrad/2024_03/DFT_Crest_Conformers/Opt/deprot/9_deprot_aq_1.inp # write input file
|  2> # Basic Mode
|  3> #
|  4> ! Opt Freq wB97X Def2-SVP D4 SlowConv TightSCF Defgrid2 Def2/J RIJCOSX CPCM(Water)
|  5>
|  6>
|  7>
|  8> %maxcore 4500
|  9>
| 10> %geom
| 11> Maxiter 150
| 12> END
| 13>
| 14> * xyzfile 0 1 9_deprot_aq_1.xyz
| 15>
| 16>                          ****END OF INPUT****
 Total Charge           Charge          ....    0
 Multiplicity           Mult            ....    1
 Number of Electrons    NEL             ....   54
Dispersion correction           -0.001942843
FINAL SINGLE POINT ENERGY      -305.715111440932
Dispersion correction            ... Starting D4
Dispersion correction           -0.001937389
FINAL SINGLE POINT ENERGY      -305.715939736064
Dispersion correction            ... Starting D4
Dispersion correction           -0.001937258
FINAL SINGLE POINT ENERGY      -305.715962548938
Dispersion correction            ... Starting D4
Dispersion correction           -0.001937279
FINAL SINGLE POINT ENERGY      -305.715969536113
Dispersion correction            ... Starting D4
                    ***********************HURRAY********************

CARTESIAN COORDINATES (ANGSTROEM)
---------------------------------
  N     -1.073114   -0.190195    0.000129
  C     -0.000001   -0.997434   -0.000013
  N      1.073128   -0.190217   -0.000146
  C      0.766331    1.242057    0.000138
  C     -0.766287    1.242073    0.000020
  C     -2.444235   -0.629088    0.000017
  C      2.444240   -0.629137    0.000125
  H     -2.980757   -0.261170    0.892017
  H     -2.467565   -1.726438    0.000401
  H     -2.980468   -0.261805   -0.892423
  H      2.981014   -0.260637   -0.891478
  H      2.467551   -1.726488   -0.000985
  H      2.980233   -0.262460    0.892962
  H      1.196146    1.731860   -0.890145
  H      1.195993    1.731477    0.890713
  H     -1.195940    1.731610   -0.890494
  H     -1.196090    1.731778    0.890364

 Multiplicity           Mult            ....    1
 Number of Electrons    NEL             ....   54
 Basis Dimension        Dim             ....  148

ORBITAL ENERGIES
----------------

  NO   OCC          E(Eh)            E(eV)
   0   2.0000     -14.419267      -392.3682
   1   2.0000     -14.419251      -392.3678
   2   2.0000     -10.299321      -280.2588
   3   2.0000     -10.299303      -280.2583
   4   2.0000     -10.293041      -280.0879
   5   2.0000     -10.293006      -280.0869
   6   2.0000     -10.281486      -279.7734
   7   2.0000      -1.115529       -30.3551
   8   2.0000      -1.015489       -27.6329
   9   2.0000      -0.881892       -23.9975
  10   2.0000      -0.845361       -23.0034
  11   2.0000      -0.788518       -21.4567
  12   2.0000      -0.724362       -19.7109
  13   2.0000      -0.659942       -17.9579
  14   2.0000      -0.609637       -16.5891
  15   2.0000      -0.608406       -16.5556
  16   2.0000      -0.566624       -15.4186
  17   2.0000      -0.547893       -14.9089
  18   2.0000      -0.520665       -14.1680
  19   2.0000      -0.517605       -14.0847
  20   2.0000      -0.514414       -13.9979
  21   2.0000      -0.473599       -12.8873
  22   2.0000      -0.466504       -12.6942
  23   2.0000      -0.463045       -12.6001
  24   2.0000      -0.421072       -11.4580
  25   2.0000      -0.317878        -8.6499
  26   2.0000      -0.303909        -8.2698
  27   0.0000       0.126838         3.4514
  28   0.0000       0.149504         4.0682
  29   0.0000       0.164815         4.4849
  30   0.0000       0.201087         5.4719
  31   0.0000       0.208997         5.6871

MULLIKEN ATOMIC CHARGES
-----------------------
   0 N :   -0.349564
   1 C :   -0.157213
   2 N :   -0.349563
   3 C :    0.109746
   4 C :    0.109747
   5 C :    0.102348
   6 C :    0.102347
   7 H :    0.038997
   8 H :    0.042625
   9 H :    0.038995
  10 H :    0.038996
  11 H :    0.042625
  12 H :    0.038996
  13 H :    0.047735
  14 H :    0.047723
  15 H :    0.047725
  16 H :    0.047733
Sum of atomic charges:    0.0000000

LOEWDIN ATOMIC CHARGES
----------------------
   0 N :   -0.057718
   1 C :   -0.268360
   2 N :   -0.057718
   3 C :    0.035767
   4 C :    0.035767
   5 C :    0.021969
   6 C :    0.021968
   7 H :    0.023425
   8 H :    0.030420
   9 H :    0.023418
  10 H :    0.023430
  11 H :    0.030420
  12 H :    0.023413
  13 H :    0.028454
  14 H :    0.028445
  15 H :    0.028446
  16 H :    0.028453

  Mayer bond orders larger than 0.100000
B(  0-N ,  1-C ) :   1.2711 B(  0-N ,  4-C ) :   0.9428 B(  0-N ,  5-C ) :   0.9762
B(  1-C ,  2-N ) :   1.2711 B(  2-N ,  3-C ) :   0.9428 B(  2-N ,  6-C ) :   0.9762
B(  3-C ,  4-C ) :   1.0965 B(  3-C , 13-H ) :   0.9543 B(  3-C , 14-H ) :   0.9543
B(  4-C , 15-H ) :   0.9543 B(  4-C , 16-H ) :   0.9543 B(  5-C ,  7-H ) :   0.9751
B(  5-C ,  8-H ) :   0.9741 B(  5-C ,  9-H ) :   0.9751 B(  6-C , 10-H ) :   0.9751
B(  6-C , 11-H ) :   0.9741 B(  6-C , 12-H ) :   0.9751

Dispersion correction           -0.001937334
FINAL SINGLE POINT ENERGY      -305.715970063959

DIPOLE MOMENT
-------------
                                X             Y             Z
Electronic contribution:     -0.00001      -0.63501      -0.00035
Nuclear contribution   :      0.00003       2.28866       0.00048
                        -----------------------------------------
Total Dipole Moment    :      0.00002       1.65365       0.00013
                        -----------------------------------------
Magnitude (a.u.)       :      1.65365
Magnitude (Debye)      :      4.20325

Dispersion correction in the Hessian             ... Starting D4

VIBRATIONAL FREQUENCIES
-----------------------

Scaling factor for frequencies =  1.000000000  (already applied!)

   0:         0.00 cm**-1
   1:         0.00 cm**-1
   2:         0.00 cm**-1
   3:         0.00 cm**-1
   4:         0.00 cm**-1
   5:         0.00 cm**-1
   6:       -90.56 cm**-1 ***imaginary mode***
   7:       113.60 cm**-1
   8:       142.80 cm**-1
   9:       182.27 cm**-1
  10:       215.25 cm**-1
  11:       284.89 cm**-1
  12:       419.83 cm**-1
  13:       466.32 cm**-1
  14:       623.93 cm**-1
  15:       663.03 cm**-1
  16:       844.00 cm**-1
  17:       939.79 cm**-1
  18:       954.72 cm**-1
  19:      1024.57 cm**-1
  20:      1093.39 cm**-1
  21:      1097.33 cm**-1
  22:      1098.13 cm**-1
  23:      1140.32 cm**-1
  24:      1158.99 cm**-1
  25:      1202.80 cm**-1
  26:      1243.34 cm**-1
  27:      1262.88 cm**-1
  28:      1324.81 cm**-1
  29:      1325.04 cm**-1
  30:      1366.77 cm**-1
  31:      1417.95 cm**-1
  32:      1427.38 cm**-1
  33:      1443.05 cm**-1
  34:      1443.56 cm**-1
  35:      1461.86 cm**-1
  36:      1476.56 cm**-1
  37:      1477.93 cm**-1
  38:      1494.03 cm**-1
  39:      1547.78 cm**-1
  40:      1570.08 cm**-1
  41:      3038.08 cm**-1
  42:      3041.11 cm**-1
  43:      3059.99 cm**-1
  44:      3070.89 cm**-1
  45:      3111.00 cm**-1
  46:      3116.64 cm**-1
  47:      3119.95 cm**-1
  48:      3127.40 cm**-1
  49:      3194.90 cm**-1
  50:      3194.93 cm**-1

IR SPECTRUM
-----------

 Mode   freq       eps      Int      T**2         TX        TY        TZ
       cm**-1   L/(mol*cm) km/mol    a.u.
----------------------------------------------------------------------------
  7:    113.60   0.002134   10.78  0.005861  ( 0.000019 -0.000010 -0.076559)
  8:    142.80   0.000000    0.00  0.000000  (-0.000017 -0.000049 -0.000015)
  9:    182.27   0.003032   15.32  0.005192  (-0.000073 -0.000028  0.072055)
 10:    215.25   0.000000    0.00  0.000000  ( 0.000036  0.000035 -0.000007)
 11:    284.89   0.000321    1.62  0.000352  ( 0.000000  0.018750  0.000019)
 12:    419.83   0.002698   13.63  0.002005  ( 0.044779 -0.000001 -0.000009)
 13:    466.32   0.000116    0.59  0.000078  ( 0.000085 -0.000001  0.008817)
 14:    623.93   0.000186    0.94  0.000093  ( 0.000000  0.009650 -0.000008)
 15:    663.03   0.007598   38.40  0.003576  ( 0.059800 -0.000001  0.000012)
 16:    844.00   0.000001    0.01  0.000000  ( 0.000010  0.000001 -0.000608)
 17:    939.79   0.004122   20.83  0.001369  (-0.000001 -0.036996 -0.000003)
 18:    954.72   0.000003    0.02  0.000001  (-0.001031  0.000000  0.000017)
 19:   1024.57   0.000076    0.39  0.000023  ( 0.000000  0.004825  0.000002)
 20:   1093.39   0.000248    1.25  0.000071  ( 0.000000 -0.008407  0.000001)
 21:   1097.33   0.000002    0.01  0.000001  (-0.000761  0.000031  0.000000)
 22:   1098.13   0.008991   45.44  0.002555  ( 0.050549 -0.000000 -0.000012)
 23:   1140.32   0.000012    0.06  0.000003  ( 0.000036 -0.000005  0.001785)
 24:   1158.99   0.000000    0.00  0.000000  ( 0.000035 -0.000009  0.000001)
 25:   1202.80   0.003022   15.27  0.000784  ( 0.000075 -0.000001 -0.028001)
 26:   1243.34   0.000000    0.00  0.000000  ( 0.000017  0.000013 -0.000001)
 27:   1262.88   0.014758   74.58  0.003647  (-0.060389  0.000001 -0.000009)
 28:   1324.81   0.020871  105.47  0.004916  (-0.070116 -0.000020 -0.000008)
 29:   1325.04   0.000267    1.35  0.000063  ( 0.000184 -0.007925  0.000000)
 30:   1366.77   0.003331   16.83  0.000760  ( 0.000000  0.027576  0.000001)
 31:   1417.95   0.013836   69.92  0.003045  ( 0.055181 -0.000001  0.000070)
 32:   1427.38   0.000881    4.45  0.000193  ( 0.000001  0.013879  0.000052)
 33:   1443.05   0.000000    0.00  0.000000  (-0.000116 -0.000019 -0.000032)
 34:   1443.56   0.005819   29.41  0.001258  ( 0.000260  0.000009 -0.035466)
 35:   1461.86   0.022202  112.20  0.004739  (-0.068843  0.000000 -0.000073)
 36:   1476.56   0.000564    2.85  0.000119  ( 0.010917  0.000001  0.000022)
 37:   1477.93   0.005609   28.35  0.001184  (-0.000001  0.034415 -0.000015)
 38:   1494.03   0.000136    0.69  0.000028  ( 0.000000  0.005337  0.000001)
 39:   1547.78   0.001093    5.52  0.000220  ( 0.000004 -0.014843 -0.000005)
 40:   1570.08   0.079038  399.43  0.015709  ( 0.125337 -0.000001  0.000017)
 41:   3038.08   0.042038  212.44  0.004318  (-0.065712  0.000001 -0.000055)
 42:   3041.11   0.000110    0.56  0.000011  ( 0.000003 -0.003360  0.000022)
 43:   3059.99   0.009534   48.18  0.000972  (-0.031181  0.000000 -0.000032)
 44:   3070.89   0.012621   63.78  0.001282  (-0.000000 -0.035812 -0.000006)
 45:   3111.00   0.000000    0.00  0.000000  ( 0.000009  0.000033  0.000002)
 46:   3116.64   0.029440  148.78  0.002948  ( 0.000033  0.000010 -0.054294)
 47:   3119.95   0.000000    0.00  0.000000  (-0.000009 -0.000004  0.000006)
 48:   3127.40   0.003771   19.06  0.000376  ( 0.000003  0.000000 -0.019399)
 49:   3194.90   0.003948   19.95  0.000386  (-0.000170 -0.019637 -0.000007)
 50:   3194.93   0.000317    1.60  0.000031  (-0.005534  0.000601 -0.000012)

--------------------------
THERMOCHEMISTRY AT 298.15K
--------------------------

Temperature         ... 298.15 K
Pressure            ... 1.00 atm
Total Mass          ... 98.15 AMU

Throughout the following assumptions are being made:
  (1) The electronic state is orbitally nondegenerate
  (2) There are no thermally accessible electronically excited states
  (3) Hindered rotations indicated by low frequency modes are not
      treated as such but are treated as vibrations and this may
      cause some error
  (4) All equations used are the standard statistical mechanics
      equations for an ideal gas
  (5) All vibrations are strictly harmonic

freq.     113.60  E(vib)   ...       0.44
freq.     142.80  E(vib)   ...       0.41
freq.     182.27  E(vib)   ...       0.37
freq.     215.25  E(vib)   ...       0.34
freq.     284.89  E(vib)   ...       0.28
freq.     419.83  E(vib)   ...       0.18
freq.     466.32  E(vib)   ...       0.16
freq.     623.93  E(vib)   ...       0.09
freq.     663.03  E(vib)   ...       0.08
freq.     844.00  E(vib)   ...       0.04
freq.     939.79  E(vib)   ...       0.03
freq.     954.72  E(vib)   ...       0.03
freq.    1024.57  E(vib)   ...       0.02
freq.    1093.39  E(vib)   ...       0.02
freq.    1097.33  E(vib)   ...       0.02
freq.    1098.13  E(vib)   ...       0.02
freq.    1140.32  E(vib)   ...       0.01
freq.    1158.99  E(vib)   ...       0.01
freq.    1202.80  E(vib)   ...       0.01
freq.    1243.34  E(vib)   ...       0.01
freq.    1262.88  E(vib)   ...       0.01
freq.    1324.81  E(vib)   ...       0.01
freq.    1325.04  E(vib)   ...       0.01
freq.    1366.77  E(vib)   ...       0.01
freq.    1417.95  E(vib)   ...       0.00
freq.    1427.38  E(vib)   ...       0.00
freq.    1443.05  E(vib)   ...       0.00
freq.    1443.56  E(vib)   ...       0.00
freq.    1461.86  E(vib)   ...       0.00
freq.    1476.56  E(vib)   ...       0.00
freq.    1477.93  E(vib)   ...       0.00
freq.    1494.03  E(vib)   ...       0.00
freq.    1547.78  E(vib)   ...       0.00
freq.    1570.08  E(vib)   ...       0.00
freq.    3038.08  E(vib)   ...       0.00
freq.    3041.11  E(vib)   ...       0.00
freq.    3059.99  E(vib)   ...       0.00
freq.    3070.89  E(vib)   ...       0.00
freq.    3111.00  E(vib)   ...       0.00
freq.    3116.64  E(vib)   ...       0.00
freq.    3119.95  E(vib)   ...       0.00
freq.    3127.40  E(vib)   ...       0.00
freq.    3194.90  E(vib)   ...       0.00
freq.    3194.93  E(vib)   ...       0.00

------------
INNER ENERGY
------------

The inner energy is: U= E(el) + E(ZPE) + E(vib) + E(rot) + E(trans)
    E(el)   - is the total energy from the electronic structure calculation
              = E(kin-el) + E(nuc-el) + E(el-el) + E(nuc-nuc)
    E(ZPE)  - the the zero temperature vibrational energy from the frequency calculation
    E(vib)  - the the finite temperature correction to E(ZPE) due to population
              of excited vibrational states
    E(rot)  - is the rotational thermal energy
    E(trans)- is the translational thermal energy

Summary of contributions to the inner energy U:
Electronic energy                ...   -305.71597006 Eh
Zero point energy                ...      0.15041345 Eh      94.39 kcal/mol
Thermal vibrational correction   ...      0.00418223 Eh       2.62 kcal/mol
Thermal rotational correction    ...      0.00141627 Eh       0.89 kcal/mol
Thermal translational correction ...      0.00141627 Eh       0.89 kcal/mol
-----------------------------------------------------------------------
Total thermal energy                   -305.55854184 Eh

Summary of corrections to the electronic energy:
(perhaps to be used in another calculation)
Total thermal correction                  0.00701477 Eh       4.40 kcal/mol
Non-thermal (ZPE) correction              0.15041345 Eh      94.39 kcal/mol
-----------------------------------------------------------------------
Total correction                          0.15742822 Eh      98.79 kcal/mol

--------
ENTHALPY
--------

The enthalpy is H = U + kB*T
                kB is Boltzmann's constant
Total free energy                 ...   -305.55854184 Eh
Thermal Enthalpy correction       ...      0.00094421 Eh       0.59 kcal/mol
-----------------------------------------------------------------------
Total Enthalpy                    ...   -305.55759763 Eh

Note: Only C1 symmetry has been detected, increase convergence thresholds
      if your molecule has a higher symmetry. Symmetry factor of 1.0 is
      used for the rotational entropy correction.

Note: Rotational entropy computed according to Herzberg
Infrared and Raman Spectra, Chapter V,1, Van Nostrand Reinhold, 1945
Point Group:  C1, Symmetry Number:   1
Rotational constants in cm-1:     0.199944     0.067390     0.052410

Vibrational entropy computed according to the QRRHO of S. Grimme
Chem.Eur.J. 2012 18 9955

-------
ENTROPY
-------

The entropy contributions are T*S = T*(S(el)+S(vib)+S(rot)+S(trans))
     S(el)   - electronic entropy
     S(vib)  - vibrational entropy
     S(rot)  - rotational entropy
     S(trans)- translational entropy
The entropies will be listed as multiplied by the temperature to get
units of energy

Electronic entropy                ...      0.00000000 Eh      0.00 kcal/mol
Vibrational entropy               ...      0.00715323 Eh      4.49 kcal/mol
Rotational entropy                ...      0.01293613 Eh      8.12 kcal/mol
Translational entropy             ...      0.01884478 Eh     11.83 kcal/mol
-----------------------------------------------------------------------
Final entropy term                ...      0.03893414 Eh     24.43 kcal/mol

In case the symmetry of your molecule has not been determined correctly
or in case you have a reason to use a different symmetry number we print
out the resulting rotational entropy values for sn=1,12 :
 --------------------------------------------------------
|  sn= 1 | S(rot)=       0.01293613 Eh      8.12 kcal/mol|
|  sn= 2 | S(rot)=       0.01228167 Eh      7.71 kcal/mol|
|  sn= 3 | S(rot)=       0.01189884 Eh      7.47 kcal/mol|
|  sn= 4 | S(rot)=       0.01162722 Eh      7.30 kcal/mol|
|  sn= 5 | S(rot)=       0.01141653 Eh      7.16 kcal/mol|
|  sn= 6 | S(rot)=       0.01124438 Eh      7.06 kcal/mol|
|  sn= 7 | S(rot)=       0.01109884 Eh      6.96 kcal/mol|
|  sn= 8 | S(rot)=       0.01097276 Eh      6.89 kcal/mol|
|  sn= 9 | S(rot)=       0.01086155 Eh      6.82 kcal/mol|
|  sn=10 | S(rot)=       0.01076207 Eh      6.75 kcal/mol|
|  sn=11 | S(rot)=       0.01067208 Eh      6.70 kcal/mol|
|  sn=12 | S(rot)=       0.01058993 Eh      6.65 kcal/mol|
 --------------------------------------------------------

-------------------
GIBBS FREE ENERGY
-------------------

                             ****ORCA TERMINATED NORMALLY****
TOTAL RUN TIME: 0 days 0 hours 20 minutes 14 seconds 243 msec
