                         Program Version 5.0.4 -  RELEASE  -
|  1> # ORCA 5.0.4 - /users/bwb16179/postgrad/2024_03/DFT_Crest_Conformers/Opt/prot/9_prot_aq_1.inp # write input file
|  2> # Basic Mode
|  3> #
|  4> ! Opt Freq wB97X Def2-SVP D4 SlowConv TightSCF Defgrid2 Def2/J RIJCOSX CPCM(Water)
|  5>
|  6>
|  7>
|  8> %maxcore 4500
|  9>
| 10> %geom
| 11> Maxiter 150
| 12> END
| 13>
| 14> * xyzfile 1 1 9_prot_aq_1.xyz
| 15>
| 16>                          ****END OF INPUT****
 Total Charge           Charge          ....    1
 Multiplicity           Mult            ....    1
 Number of Electrons    NEL             ....   54
Dispersion correction           -0.001844425
FINAL SINGLE POINT ENERGY      -306.219247923648
Dispersion correction            ... Starting D4
Dispersion correction           -0.001840794
FINAL SINGLE POINT ENERGY      -306.220339841024
Dispersion correction            ... Starting D4
Dispersion correction           -0.001840437
FINAL SINGLE POINT ENERGY      -306.220407920481
Dispersion correction            ... Starting D4
Dispersion correction           -0.001840496
FINAL SINGLE POINT ENERGY      -306.220432459537
Dispersion correction            ... Starting D4
                    ***********************HURRAY********************

CARTESIAN COORDINATES (ANGSTROEM)
---------------------------------
  N     -1.098268   -0.154644   -0.000001
  C      0.000008   -0.872328   -0.000046
  N      1.098286   -0.154647   -0.000043
  H      0.000010   -1.966945   -0.000099
  C      0.770829    1.276488   -0.000157
  C     -0.770806    1.276490    0.000126
  C     -2.459876   -0.645477   -0.000282
  C      2.459894   -0.645478   -0.000133
  H     -2.985972   -0.284337   -0.896298
  H     -2.986064   -0.285451    0.896130
  H     -2.452363   -1.742843   -0.000975
  H      2.985908   -0.285624    0.896452
  H      2.986160   -0.284160   -0.895977
  H      2.452387   -1.742844   -0.001051
  H      1.200023    1.753297   -0.893998
  H      1.200330    1.753579    0.893380
  H     -1.200325    1.753559   -0.893416
  H     -1.199979    1.753325    0.893962

 Multiplicity           Mult            ....    1
 Number of Electrons    NEL             ....   54
 Basis Dimension        Dim             ....  153

ORBITAL ENERGIES
----------------

  NO   OCC          E(Eh)            E(eV)
   0   2.0000     -14.481554      -394.0631
   1   2.0000     -14.481523      -394.0623
   2   2.0000     -10.399172      -282.9758
   3   2.0000     -10.330778      -281.1147
   4   2.0000     -10.330753      -281.1141
   5   2.0000     -10.320203      -280.8270
   6   2.0000     -10.320176      -280.8263
   7   2.0000      -1.184573       -32.2339
   8   2.0000      -1.074322       -29.2338
   9   2.0000      -0.923534       -25.1306
  10   2.0000      -0.895056       -24.3557
  11   2.0000      -0.825871       -22.4731
  12   2.0000      -0.781924       -21.2772
  13   2.0000      -0.728622       -19.8268
  14   2.0000      -0.665355       -18.1052
  15   2.0000      -0.650225       -17.6935
  16   2.0000      -0.610058       -16.6005
  17   2.0000      -0.578888       -15.7523
  18   2.0000      -0.569570       -15.4988
  19   2.0000      -0.564618       -15.3640
  20   2.0000      -0.549971       -14.9655
  21   2.0000      -0.533687       -14.5224
  22   2.0000      -0.507909       -13.8209
  23   2.0000      -0.496242       -13.5034
  24   2.0000      -0.494336       -13.4516
  25   2.0000      -0.479962       -13.0604
  26   2.0000      -0.349368        -9.5068
  27   0.0000       0.061115         1.6630
  28   0.0000       0.138165         3.7597
  29   0.0000       0.155518         4.2319
  30   0.0000       0.161271         4.3884
  31   0.0000       0.192549         5.2395

MULLIKEN ATOMIC CHARGES
-----------------------
   0 N :   -0.342839
   1 C :    0.298496
   2 N :   -0.342838
   3 H :    0.141050
   4 C :    0.117527
   5 C :    0.117529
   6 C :    0.085804
   7 C :    0.085803
   8 H :    0.078708
   9 H :    0.078716
  10 H :    0.084398
  11 H :    0.078722
  12 H :    0.078703
  13 H :    0.084398
  14 H :    0.088957
  15 H :    0.088955
  16 H :    0.088956
  17 H :    0.088956
Sum of atomic charges:    1.0000000

LOEWDIN ATOMIC CHARGES
----------------------
   0 N :    0.014782
   1 C :    0.191535
   2 N :    0.014783
   3 H :    0.075395
   4 C :    0.067153
   5 C :    0.067153
   6 C :    0.047492
   7 C :    0.047492
   8 H :    0.044274
   9 H :    0.044267
  10 H :    0.051333
  11 H :    0.044266
  12 H :    0.044276
  13 H :    0.051333
  14 H :    0.048614
  15 H :    0.048618
  16 H :    0.048618
  17 H :    0.048614

  Mayer bond orders larger than 0.100000
B(  0-N ,  1-C ) :   1.4099 B(  0-N ,  5-C ) :   0.9250 B(  0-N ,  6-C ) :   0.9257
B(  1-C ,  2-N ) :   1.4099 B(  1-C ,  3-H ) :   0.9612 B(  2-N ,  4-C ) :   0.9250
B(  2-N ,  7-C ) :   0.9257 B(  4-C ,  5-C ) :   1.0915 B(  4-C , 14-H ) :   0.9537
B(  4-C , 15-H ) :   0.9537 B(  5-C , 16-H ) :   0.9537 B(  5-C , 17-H ) :   0.9537
B(  6-C ,  8-H ) :   0.9731 B(  6-C ,  9-H ) :   0.9731 B(  6-C , 10-H ) :   0.9730
B(  7-C , 11-H ) :   0.9731 B(  7-C , 12-H ) :   0.9731 B(  7-C , 13-H ) :   0.9730

Dispersion correction           -0.001840572
FINAL SINGLE POINT ENERGY      -306.220433218731

DIPOLE MOMENT
-------------
                                X             Y             Z
Electronic contribution:     -0.00000      -0.67651       0.00067
Nuclear contribution   :      0.00001       0.31322      -0.00090
                        -----------------------------------------
Total Dipole Moment    :      0.00000      -0.36329      -0.00023
                        -----------------------------------------
Magnitude (a.u.)       :      0.36329
Magnitude (Debye)      :      0.92340

Dispersion correction in the Hessian             ... Starting D4

VIBRATIONAL FREQUENCIES
-----------------------

Scaling factor for frequencies =  1.000000000  (already applied!)

   0:         0.00 cm**-1
   1:         0.00 cm**-1
   2:         0.00 cm**-1
   3:         0.00 cm**-1
   4:         0.00 cm**-1
   5:         0.00 cm**-1
   6:       -65.37 cm**-1 ***imaginary mode***
   7:       116.72 cm**-1
   8:       128.00 cm**-1
   9:       164.49 cm**-1
  10:       203.21 cm**-1
  11:       266.84 cm**-1
  12:       397.73 cm**-1
  13:       464.89 cm**-1
  14:       616.77 cm**-1
  15:       635.96 cm**-1
  16:       841.32 cm**-1
  17:       948.66 cm**-1
  18:       959.07 cm**-1
  19:      1011.85 cm**-1
  20:      1016.12 cm**-1
  21:      1092.53 cm**-1
  22:      1103.23 cm**-1
  23:      1114.78 cm**-1
  24:      1141.86 cm**-1
  25:      1157.60 cm**-1
  26:      1201.37 cm**-1
  27:      1228.56 cm**-1
  28:      1257.03 cm**-1
  29:      1331.96 cm**-1
  30:      1338.47 cm**-1
  31:      1351.24 cm**-1
  32:      1394.08 cm**-1
  33:      1435.64 cm**-1
  34:      1436.88 cm**-1
  35:      1437.62 cm**-1
  36:      1446.74 cm**-1
  37:      1467.34 cm**-1
  38:      1472.46 cm**-1
  39:      1474.44 cm**-1
  40:      1486.54 cm**-1
  41:      1627.46 cm**-1
  42:      1767.61 cm**-1
  43:      3075.97 cm**-1
  44:      3077.18 cm**-1
  45:      3104.14 cm**-1
  46:      3108.94 cm**-1
  47:      3167.68 cm**-1
  48:      3176.99 cm**-1
  49:      3182.09 cm**-1
  50:      3182.92 cm**-1
  51:      3209.48 cm**-1
  52:      3209.49 cm**-1
  53:      3263.94 cm**-1

IR SPECTRUM
-----------

 Mode   freq       eps      Int      T**2         TX        TY        TZ
       cm**-1   L/(mol*cm) km/mol    a.u.
----------------------------------------------------------------------------
  7:    116.72   0.000630    3.18  0.001685  ( 0.000003  0.000005  0.041046)
  8:    128.00   0.000000    0.00  0.000000  ( 0.000042  0.000008 -0.000000)
  9:    164.49   0.001035    5.23  0.001964  (-0.000012 -0.000007  0.044316)
 10:    203.21   0.000000    0.00  0.000000  ( 0.000031  0.000007  0.000002)
 11:    266.84   0.000003    0.01  0.000003  (-0.000000  0.001851 -0.000004)
 12:    397.73   0.000206    1.04  0.000162  (-0.012710 -0.000000 -0.000009)
 13:    464.89   0.009220   46.59  0.006189  ( 0.000004 -0.000004  0.078668)
 14:    616.77   0.000003    0.02  0.000002  (-0.000001 -0.001242 -0.000008)
 15:    635.96   0.001594    8.06  0.000782  (-0.027969  0.000000 -0.000008)
 16:    841.32   0.000000    0.00  0.000000  (-0.000009  0.000002  0.000182)
 17:    948.66   0.002633   13.31  0.000866  (-0.000002 -0.029433  0.000003)
 18:    959.07   0.002641   13.35  0.000859  ( 0.029313 -0.000002  0.000007)
 19:   1011.85   0.001189    6.01  0.000367  ( 0.000009 -0.000009  0.019149)
 20:   1016.12   0.000034    0.17  0.000011  ( 0.000000  0.003248  0.000020)
 21:   1092.53   0.000000    0.00  0.000000  ( 0.000114  0.000010 -0.000000)
 22:   1103.23   0.015243   77.03  0.004312  (-0.065664  0.000001  0.000000)
 23:   1114.78   0.003417   17.27  0.000956  (-0.000001 -0.030926 -0.000006)
 24:   1141.86   0.000261    1.32  0.000071  ( 0.000006 -0.000033  0.008450)
 25:   1157.60   0.000000    0.00  0.000000  ( 0.000029 -0.000006  0.000000)
 26:   1201.37   0.023179  117.14  0.006021  (-0.077594 -0.000000  0.000011)
 27:   1228.56   0.002457   12.42  0.000624  ( 0.000048  0.000003  0.024984)
 28:   1257.03   0.000000    0.00  0.000000  ( 0.000003 -0.000018 -0.000000)
 29:   1331.96   0.007320   36.99  0.001715  (-0.041413 -0.000001 -0.000002)
 30:   1338.47   0.002576   13.02  0.000601  ( 0.000001 -0.024509  0.000000)
 31:   1351.24   0.015125   76.44  0.003493  (-0.059103  0.000001  0.000010)
 32:   1394.08   0.006810   34.42  0.001524  ( 0.000001  0.039044  0.000003)
 33:   1435.64   0.012660   63.98  0.002752  ( 0.052458 -0.000000 -0.000017)
 34:   1436.88   0.000000    0.00  0.000000  ( 0.000181  0.000007 -0.000012)
 35:   1437.62   0.009548   48.25  0.002073  (-0.000013 -0.000025 -0.045527)
 36:   1446.74   0.000677    3.42  0.000146  ( 0.000000  0.012081  0.000006)
 37:   1467.34   0.009046   45.71  0.001924  (-0.000000 -0.043862  0.000025)
 38:   1472.46   0.000001    0.00  0.000000  ( 0.000366  0.000000 -0.000003)
 39:   1474.44   0.000027    0.14  0.000006  (-0.002401 -0.000001 -0.000008)
 40:   1486.54   0.000472    2.39  0.000099  (-0.000000  0.009955 -0.000004)
 41:   1627.46   0.006644   33.58  0.001274  ( 0.000001 -0.035694 -0.000003)
 42:   1767.61   0.166452  841.18  0.029386  ( 0.171424  0.000000 -0.000005)
 43:   3075.97   0.013358   67.51  0.001355  (-0.036813  0.000000 -0.000003)
 44:   3077.18   0.000227    1.15  0.000023  (-0.000004 -0.004803  0.000011)
 45:   3104.14   0.003254   16.45  0.000327  (-0.018088 -0.000001  0.000016)
 46:   3108.94   0.002857   14.44  0.000287  ( 0.000001 -0.016936  0.000002)
 47:   3167.68   0.000000    0.00  0.000000  (-0.000000 -0.000006 -0.000001)
 48:   3176.99   0.004004   20.23  0.000393  (-0.000002 -0.000000 -0.019832)
 49:   3182.09   0.000000    0.00  0.000000  ( 0.000006 -0.000000  0.000002)
 50:   3182.92   0.000823    4.16  0.000081  (-0.000002 -0.000005  0.008983)
 51:   3209.48   0.000504    2.55  0.000049  ( 0.006998 -0.000051  0.000000)
 52:   3209.49   0.000225    1.14  0.000022  (-0.000076 -0.004681 -0.000000)
 53:   3263.94   0.003105   15.69  0.000297  ( 0.000000  0.017231  0.000001)

--------------------------
THERMOCHEMISTRY AT 298.15K
--------------------------

Temperature         ... 298.15 K
Pressure            ... 1.00 atm
Total Mass          ... 99.16 AMU

Throughout the following assumptions are being made:
  (1) The electronic state is orbitally nondegenerate
  (2) There are no thermally accessible electronically excited states
  (3) Hindered rotations indicated by low frequency modes are not
      treated as such but are treated as vibrations and this may
      cause some error
  (4) All equations used are the standard statistical mechanics
      equations for an ideal gas
  (5) All vibrations are strictly harmonic

freq.     116.72  E(vib)   ...       0.44
freq.     128.00  E(vib)   ...       0.43
freq.     164.49  E(vib)   ...       0.39
freq.     203.21  E(vib)   ...       0.35
freq.     266.84  E(vib)   ...       0.29
freq.     397.73  E(vib)   ...       0.20
freq.     464.89  E(vib)   ...       0.16
freq.     616.77  E(vib)   ...       0.09
freq.     635.96  E(vib)   ...       0.09
freq.     841.32  E(vib)   ...       0.04
freq.     948.66  E(vib)   ...       0.03
freq.     959.07  E(vib)   ...       0.03
freq.    1011.85  E(vib)   ...       0.02
freq.    1016.12  E(vib)   ...       0.02
freq.    1092.53  E(vib)   ...       0.02
freq.    1103.23  E(vib)   ...       0.02
freq.    1114.78  E(vib)   ...       0.01
freq.    1141.86  E(vib)   ...       0.01
freq.    1157.60  E(vib)   ...       0.01
freq.    1201.37  E(vib)   ...       0.01
freq.    1228.56  E(vib)   ...       0.01
freq.    1257.03  E(vib)   ...       0.01
freq.    1331.96  E(vib)   ...       0.01
freq.    1338.47  E(vib)   ...       0.01
freq.    1351.24  E(vib)   ...       0.01
freq.    1394.08  E(vib)   ...       0.00
freq.    1435.64  E(vib)   ...       0.00
freq.    1436.88  E(vib)   ...       0.00
freq.    1437.62  E(vib)   ...       0.00
freq.    1446.74  E(vib)   ...       0.00
freq.    1467.34  E(vib)   ...       0.00
freq.    1472.46  E(vib)   ...       0.00
freq.    1474.44  E(vib)   ...       0.00
freq.    1486.54  E(vib)   ...       0.00
freq.    1627.46  E(vib)   ...       0.00
freq.    1767.61  E(vib)   ...       0.00
freq.    3075.97  E(vib)   ...       0.00
freq.    3077.18  E(vib)   ...       0.00
freq.    3104.14  E(vib)   ...       0.00
freq.    3108.94  E(vib)   ...       0.00
freq.    3167.68  E(vib)   ...       0.00
freq.    3176.99  E(vib)   ...       0.00
freq.    3182.09  E(vib)   ...       0.00
freq.    3182.92  E(vib)   ...       0.00
freq.    3209.48  E(vib)   ...       0.00
freq.    3209.49  E(vib)   ...       0.00
freq.    3263.94  E(vib)   ...       0.00

------------
INNER ENERGY
------------

The inner energy is: U= E(el) + E(ZPE) + E(vib) + E(rot) + E(trans)
    E(el)   - is the total energy from the electronic structure calculation
              = E(kin-el) + E(nuc-el) + E(el-el) + E(nuc-nuc)
    E(ZPE)  - the the zero temperature vibrational energy from the frequency calculation
    E(vib)  - the the finite temperature correction to E(ZPE) due to population
              of excited vibrational states
    E(rot)  - is the rotational thermal energy
    E(trans)- is the translational thermal energy

Summary of contributions to the inner energy U:
Electronic energy                ...   -306.22043322 Eh
Zero point energy                ...      0.16470221 Eh     103.35 kcal/mol
Thermal vibrational correction   ...      0.00435093 Eh       2.73 kcal/mol
Thermal rotational correction    ...      0.00141627 Eh       0.89 kcal/mol
Thermal translational correction ...      0.00141627 Eh       0.89 kcal/mol
-----------------------------------------------------------------------
Total thermal energy                   -306.04854754 Eh

Summary of corrections to the electronic energy:
(perhaps to be used in another calculation)
Total thermal correction                  0.00718347 Eh       4.51 kcal/mol
Non-thermal (ZPE) correction              0.16470221 Eh     103.35 kcal/mol
-----------------------------------------------------------------------
Total correction                          0.17188568 Eh     107.86 kcal/mol

--------
ENTHALPY
--------

The enthalpy is H = U + kB*T
                kB is Boltzmann's constant
Total free energy                 ...   -306.04854754 Eh
Thermal Enthalpy correction       ...      0.00094421 Eh       0.59 kcal/mol
-----------------------------------------------------------------------
Total Enthalpy                    ...   -306.04760333 Eh

Note: Only C1 symmetry has been detected, increase convergence thresholds
      if your molecule has a higher symmetry. Symmetry factor of 1.0 is
      used for the rotational entropy correction.

Note: Rotational entropy computed according to Herzberg
Infrared and Raman Spectra, Chapter V,1, Van Nostrand Reinhold, 1945
Point Group:  C1, Symmetry Number:   1
Rotational constants in cm-1:     0.191216     0.066431     0.051238

Vibrational entropy computed according to the QRRHO of S. Grimme
Chem.Eur.J. 2012 18 9955

-------
ENTROPY
-------

The entropy contributions are T*S = T*(S(el)+S(vib)+S(rot)+S(trans))
     S(el)   - electronic entropy
     S(vib)  - vibrational entropy
     S(rot)  - rotational entropy
     S(trans)- translational entropy
The entropies will be listed as multiplied by the temperature to get
units of energy

Electronic entropy                ...      0.00000000 Eh      0.00 kcal/mol
Vibrational entropy               ...      0.00751156 Eh      4.71 kcal/mol
Rotational entropy                ...      0.01297464 Eh      8.14 kcal/mol
Translational entropy             ...      0.01885925 Eh     11.83 kcal/mol
-----------------------------------------------------------------------
Final entropy term                ...      0.03934545 Eh     24.69 kcal/mol

In case the symmetry of your molecule has not been determined correctly
or in case you have a reason to use a different symmetry number we print
out the resulting rotational entropy values for sn=1,12 :
 --------------------------------------------------------
|  sn= 1 | S(rot)=       0.01297464 Eh      8.14 kcal/mol|
|  sn= 2 | S(rot)=       0.01232019 Eh      7.73 kcal/mol|
|  sn= 3 | S(rot)=       0.01193736 Eh      7.49 kcal/mol|
|  sn= 4 | S(rot)=       0.01166573 Eh      7.32 kcal/mol|
|  sn= 5 | S(rot)=       0.01145504 Eh      7.19 kcal/mol|
|  sn= 6 | S(rot)=       0.01128290 Eh      7.08 kcal/mol|
|  sn= 7 | S(rot)=       0.01113735 Eh      6.99 kcal/mol|
|  sn= 8 | S(rot)=       0.01101127 Eh      6.91 kcal/mol|
|  sn= 9 | S(rot)=       0.01090007 Eh      6.84 kcal/mol|
|  sn=10 | S(rot)=       0.01080059 Eh      6.78 kcal/mol|
|  sn=11 | S(rot)=       0.01071060 Eh      6.72 kcal/mol|
|  sn=12 | S(rot)=       0.01062844 Eh      6.67 kcal/mol|
 --------------------------------------------------------

-------------------

                             ****ORCA TERMINATED NORMALLY****
TOTAL RUN TIME: 0 days 0 hours 17 minutes 59 seconds 943 msec
