                         Program Version 5.0.4 -  RELEASE  -
|  1> # ORCA 5.0.4 - /users/bwb16179/postgrad/2024_03/DFT_Crest_Conformers/Opt/prot/9_prot_aq_2.inp # write input file
|  2> # Basic Mode
|  3> #
|  4> ! Opt Freq wB97X Def2-SVP D4 SlowConv TightSCF Defgrid2 Def2/J RIJCOSX CPCM(Water)
|  5>
|  6>
|  7>
|  8> %maxcore 4500
|  9>
| 10> %geom
| 11> Maxiter 150
| 12> END
| 13>
| 14> * xyzfile 1 1 9_prot_aq_2.xyz
| 15>
| 16>                          ****END OF INPUT****
 Total Charge           Charge          ....    1
 Multiplicity           Mult            ....    1
 Number of Electrons    NEL             ....   54
Dispersion correction           -0.001843531
FINAL SINGLE POINT ENERGY      -306.216836665061
Dispersion correction            ... Starting D4
Dispersion correction           -0.001839640
FINAL SINGLE POINT ENERGY      -306.217937382872
Dispersion correction            ... Starting D4
Dispersion correction           -0.001839259
FINAL SINGLE POINT ENERGY      -306.217999592709
Dispersion correction            ... Starting D4
Dispersion correction           -0.001839306
FINAL SINGLE POINT ENERGY      -306.218021020522
Dispersion correction            ... Starting D4
                    ***********************HURRAY********************

CARTESIAN COORDINATES (ANGSTROEM)
---------------------------------
  N     -1.098657   -0.155173   -0.000015
  C      0.001058   -0.870382    0.001941
  N      1.099284   -0.152097    0.002424
  H      0.000999   -1.964991    0.003329
  C      0.767729    1.280141   -0.001375
  C     -0.773788    1.276497   -0.000859
  C     -2.459466   -0.647992    0.000666
  C      2.458548   -0.666910   -0.001335
  H     -2.986491   -0.287104   -0.894903
  H     -2.985490   -0.288681    0.897476
  H     -2.450363   -1.745333   -0.000391
  H      3.145497    0.187240    0.030821
  H      2.655106   -1.244441   -0.915580
  H      2.638127   -1.297901    0.880271
  H      1.192862    1.757171   -0.896548
  H      1.193874    1.761863    0.890762
  H     -1.204568    1.752094   -0.894601
  H     -1.203945    1.752863    0.892809

 Multiplicity           Mult            ....    1
 Number of Electrons    NEL             ....   54
 Basis Dimension        Dim             ....  153

ORBITAL ENERGIES
----------------

  NO   OCC          E(Eh)            E(eV)
   0   2.0000     -14.481804      -394.0699
   1   2.0000     -14.479887      -394.0177
   2   2.0000     -10.397852      -282.9399
   3   2.0000     -10.330900      -281.1181
   4   2.0000     -10.330478      -281.1066
   5   2.0000     -10.320194      -280.8268
   6   2.0000     -10.319138      -280.7980
   7   2.0000      -1.183436       -32.2029
   8   2.0000      -1.072986       -29.1974
   9   2.0000      -0.923050       -25.1175
  10   2.0000      -0.893773       -24.3208
  11   2.0000      -0.825500       -22.4630
  12   2.0000      -0.781484       -21.2653
  13   2.0000      -0.727667       -19.8008
  14   2.0000      -0.665168       -18.1002
  15   2.0000      -0.649172       -17.6649
  16   2.0000      -0.608642       -16.5620
  17   2.0000      -0.577188       -15.7061
  18   2.0000      -0.569873       -15.5070
  19   2.0000      -0.563410       -15.3312
  20   2.0000      -0.551604       -15.0099
  21   2.0000      -0.532984       -14.5032
  22   2.0000      -0.507998       -13.8233
  23   2.0000      -0.496224       -13.5029
  24   2.0000      -0.494739       -13.4625
  25   2.0000      -0.478007       -13.0072
  26   2.0000      -0.348273        -9.4770
  27   0.0000       0.057992         1.5780
  28   0.0000       0.139730         3.8023
  29   0.0000       0.156316         4.2536
  30   0.0000       0.165076         4.4920
  31   0.0000       0.188464         5.1284

MULLIKEN ATOMIC CHARGES
-----------------------
   0 N :   -0.338812
   1 C :    0.303868
   2 N :   -0.354747
   3 H :    0.138354
   4 C :    0.119306
   5 C :    0.113613
   6 C :    0.085723
   7 C :    0.082275
   8 H :    0.078804
   9 H :    0.078823
  10 H :    0.084500
  11 H :    0.081587
  12 H :    0.084189
  13 H :    0.084396
  14 H :    0.090387
  15 H :    0.090528
  16 H :    0.088608
  17 H :    0.088598
Sum of atomic charges:    1.0000000

LOEWDIN ATOMIC CHARGES
----------------------
   0 N :    0.016918
   1 C :    0.194193
   2 N :    0.008355
   3 H :    0.075326
   4 C :    0.066875
   5 C :    0.066801
   6 C :    0.047425
   7 C :    0.045631
   8 H :    0.044376
   9 H :    0.044342
  10 H :    0.051340
  11 H :    0.051177
  12 H :    0.046442
  13 H :    0.047067
  14 H :    0.048398
  15 H :    0.048479
  16 H :    0.048439
  17 H :    0.048415

  Mayer bond orders larger than 0.100000
B(  0-N ,  1-C ) :   1.4140 B(  0-N ,  5-C ) :   0.9254 B(  0-N ,  6-C ) :   0.9260
B(  1-C ,  2-N ) :   1.4061 B(  1-C ,  3-H ) :   0.9635 B(  2-N ,  4-C ) :   0.9238
B(  2-N ,  7-C ) :   0.9093 B(  4-C ,  5-C ) :   1.0911 B(  4-C , 14-H ) :   0.9543
B(  4-C , 15-H ) :   0.9541 B(  5-C , 16-H ) :   0.9537 B(  5-C , 17-H ) :   0.9536
B(  6-C ,  8-H ) :   0.9729 B(  6-C ,  9-H ) :   0.9729 B(  6-C , 10-H ) :   0.9730
B(  7-C , 11-H ) :   0.9745 B(  7-C , 12-H ) :   0.9772 B(  7-C , 13-H ) :   0.9771

Dispersion correction           -0.001839388
FINAL SINGLE POINT ENERGY      -306.218022945432

DIPOLE MOMENT
-------------
                                X             Y             Z
Electronic contribution:      0.01196      -0.64415       0.00811
Nuclear contribution   :      0.00284       0.30093      -0.00776
                        -----------------------------------------
Total Dipole Moment    :      0.01479      -0.34322       0.00035
                        -----------------------------------------
Magnitude (a.u.)       :      0.34354
Magnitude (Debye)      :      0.87321

Dispersion correction in the Hessian             ... Starting D4

VIBRATIONAL FREQUENCIES
-----------------------

Scaling factor for frequencies =  1.000000000  (already applied!)

   0:         0.00 cm**-1
   1:         0.00 cm**-1
   2:         0.00 cm**-1
   3:         0.00 cm**-1
   4:         0.00 cm**-1
   5:         0.00 cm**-1
   6:      -167.13 cm**-1 ***imaginary mode***
   7:       -66.29 cm**-1 ***imaginary mode***
   8:       121.87 cm**-1
   9:       153.88 cm**-1
  10:       206.68 cm**-1
  11:       269.97 cm**-1
  12:       401.24 cm**-1
  13:       466.12 cm**-1
  14:       618.11 cm**-1
  15:       633.31 cm**-1
  16:       842.61 cm**-1
  17:       947.23 cm**-1
  18:       957.80 cm**-1
  19:      1012.82 cm**-1
  20:      1018.64 cm**-1
  21:      1095.65 cm**-1
  22:      1108.34 cm**-1
  23:      1112.59 cm**-1
  24:      1135.31 cm**-1
  25:      1153.47 cm**-1
  26:      1200.49 cm**-1
  27:      1227.84 cm**-1
  28:      1257.88 cm**-1
  29:      1333.99 cm**-1
  30:      1339.82 cm**-1
  31:      1346.91 cm**-1
  32:      1395.53 cm**-1
  33:      1433.70 cm**-1
  34:      1437.09 cm**-1
  35:      1446.42 cm**-1
  36:      1451.51 cm**-1
  37:      1463.77 cm**-1
  38:      1472.75 cm**-1
  39:      1473.82 cm**-1
  40:      1487.32 cm**-1
  41:      1618.87 cm**-1
  42:      1762.23 cm**-1
  43:      3076.56 cm**-1
  44:      3087.42 cm**-1
  45:      3104.81 cm**-1
  46:      3111.06 cm**-1
  47:      3168.79 cm**-1
  48:      3179.66 cm**-1
  49:      3182.72 cm**-1
  50:      3194.41 cm**-1
  51:      3209.77 cm**-1
  52:      3219.54 cm**-1
  53:      3261.62 cm**-1

IR SPECTRUM
-----------

 Mode   freq       eps      Int      T**2         TX        TY        TZ
       cm**-1   L/(mol*cm) km/mol    a.u.
----------------------------------------------------------------------------
  8:    121.87   0.000556    2.81  0.001424  ( 0.000206  0.000153  0.037729)
  9:    153.88   0.001036    5.24  0.002101  (-0.000327 -0.000138 -0.045833)
 10:    206.68   0.000012    0.06  0.000018  ( 0.000343 -0.000015 -0.004217)
 11:    269.97   0.000003    0.02  0.000004  ( 0.000425 -0.001845  0.000539)
 12:    401.24   0.000241    1.22  0.000187  (-0.013669  0.000402  0.000448)
 13:    466.12   0.010098   51.03  0.006760  (-0.000739  0.000024 -0.082218)
 14:    618.11   0.000009    0.04  0.000004  (-0.000048  0.002085  0.000290)
 15:    633.31   0.001353    6.84  0.000667  ( 0.025816  0.000552 -0.000155)
 16:    842.61   0.000000    0.00  0.000000  (-0.000143 -0.000006  0.000296)
 17:    947.23   0.003376   17.06  0.001112  (-0.011184  0.031419 -0.000008)
 18:    957.80   0.004263   21.54  0.001389  (-0.037248 -0.001215 -0.000095)
 19:   1012.82   0.000864    4.37  0.000266  ( 0.000099 -0.000300 -0.016311)
 20:   1018.64   0.000192    0.97  0.000059  (-0.006464  0.004096 -0.000357)
 21:   1095.65   0.000008    0.04  0.000002  (-0.001256 -0.000403 -0.000636)
 22:   1108.34   0.010654   53.84  0.003000  (-0.046499  0.028939  0.000030)
 23:   1112.59   0.001569    7.93  0.000440  (-0.010618 -0.018092  0.000319)
 24:   1135.31   0.000323    1.63  0.000089  (-0.002710  0.001159  0.008949)
 25:   1153.47   0.000023    0.12  0.000006  (-0.001584  0.000321 -0.001933)
 26:   1200.49   0.023904  120.80  0.006214  ( 0.078827  0.000337  0.000233)
 27:   1227.84   0.002245   11.34  0.000570  (-0.000014 -0.000072  0.023884)
 28:   1257.88   0.000005    0.03  0.000001  (-0.000040 -0.000026  0.001128)
 29:   1333.99   0.009661   48.82  0.002260  ( 0.046358  0.010532 -0.000015)
 30:   1339.82   0.007487   37.84  0.001744  (-0.037039  0.019286  0.000021)
 31:   1346.91   0.012766   64.51  0.002958  (-0.053916 -0.007110  0.000311)
 32:   1395.53   0.006862   34.68  0.001534  (-0.001417 -0.039144  0.000430)
 33:   1433.70   0.010517   53.15  0.002289  (-0.046556  0.010694  0.002707)
 34:   1437.09   0.004640   23.45  0.001008  ( 0.000734 -0.000141 -0.031733)
 35:   1446.42   0.000535    2.70  0.000115  (-0.007256 -0.000056 -0.007925)
 36:   1451.51   0.004367   22.07  0.000939  ( 0.007256  0.005362  0.029283)
 37:   1463.77   0.010788   54.52  0.002300  ( 0.018927  0.043883 -0.004000)
 38:   1472.75   0.000554    2.80  0.000117  (-0.007451  0.007787  0.001131)
 39:   1473.82   0.000448    2.26  0.000095  ( 0.008857 -0.003947 -0.000918)
 40:   1487.32   0.000354    1.79  0.000074  (-0.000576  0.008601 -0.000080)
 41:   1618.87   0.007245   36.61  0.001397  (-0.017172 -0.033190  0.000305)
 42:   1762.23   0.159233  804.70  0.028198  (-0.167743  0.007732  0.000282)
 43:   3076.56   0.007166   36.22  0.000727  ( 0.026836  0.002596 -0.000080)
 44:   3087.42   0.005577   28.19  0.000564  (-0.021371  0.010332  0.000504)
 45:   3104.81   0.003111   15.72  0.000313  ( 0.016670 -0.005897 -0.000095)
 46:   3111.06   0.002840   14.35  0.000285  ( 0.005554  0.015938 -0.000099)
 47:   3168.79   0.000281    1.42  0.000028  ( 0.000020  0.000043 -0.005258)
 48:   3179.66   0.002981   15.07  0.000293  ( 0.000056  0.000029  0.017105)
 49:   3182.72   0.000104    0.53  0.000010  (-0.000037 -0.000000  0.003199)
 50:   3194.41   0.000833    4.21  0.000081  ( 0.000181  0.000024 -0.009017)
 51:   3209.77   0.000349    1.76  0.000034  ( 0.004822 -0.003266  0.000000)
 52:   3219.54   0.000175    0.88  0.000017  (-0.000846  0.004031 -0.000021)
 53:   3261.62   0.002914   14.73  0.000279  (-0.000329  0.016694 -0.000014)

--------------------------
THERMOCHEMISTRY AT 298.15K
--------------------------

Temperature         ... 298.15 K
Pressure            ... 1.00 atm
Total Mass          ... 99.16 AMU

Throughout the following assumptions are being made:
  (1) The electronic state is orbitally nondegenerate
  (2) There are no thermally accessible electronically excited states
  (3) Hindered rotations indicated by low frequency modes are not
      treated as such but are treated as vibrations and this may
      cause some error
  (4) All equations used are the standard statistical mechanics
      equations for an ideal gas
  (5) All vibrations are strictly harmonic

freq.     121.87  E(vib)   ...       0.44
freq.     153.88  E(vib)   ...       0.40
freq.     206.68  E(vib)   ...       0.35
freq.     269.97  E(vib)   ...       0.29
freq.     401.24  E(vib)   ...       0.19
freq.     466.12  E(vib)   ...       0.16
freq.     618.11  E(vib)   ...       0.09
freq.     633.31  E(vib)   ...       0.09
freq.     842.61  E(vib)   ...       0.04
freq.     947.23  E(vib)   ...       0.03
freq.     957.80  E(vib)   ...       0.03
freq.    1012.82  E(vib)   ...       0.02
freq.    1018.64  E(vib)   ...       0.02
freq.    1095.65  E(vib)   ...       0.02
freq.    1108.34  E(vib)   ...       0.02
freq.    1112.59  E(vib)   ...       0.01
freq.    1135.31  E(vib)   ...       0.01
freq.    1153.47  E(vib)   ...       0.01
freq.    1200.49  E(vib)   ...       0.01
freq.    1227.84  E(vib)   ...       0.01
freq.    1257.88  E(vib)   ...       0.01
freq.    1333.99  E(vib)   ...       0.01
freq.    1339.82  E(vib)   ...       0.01
freq.    1346.91  E(vib)   ...       0.01
freq.    1395.53  E(vib)   ...       0.00
freq.    1433.70  E(vib)   ...       0.00
freq.    1437.09  E(vib)   ...       0.00
freq.    1446.42  E(vib)   ...       0.00
freq.    1451.51  E(vib)   ...       0.00
freq.    1463.77  E(vib)   ...       0.00
freq.    1472.75  E(vib)   ...       0.00
freq.    1473.82  E(vib)   ...       0.00
freq.    1487.32  E(vib)   ...       0.00
freq.    1618.87  E(vib)   ...       0.00
freq.    1762.23  E(vib)   ...       0.00
freq.    3076.56  E(vib)   ...       0.00
freq.    3087.42  E(vib)   ...       0.00
freq.    3104.81  E(vib)   ...       0.00
freq.    3111.06  E(vib)   ...       0.00
freq.    3168.79  E(vib)   ...       0.00
freq.    3179.66  E(vib)   ...       0.00
freq.    3182.72  E(vib)   ...       0.00
freq.    3194.41  E(vib)   ...       0.00
freq.    3209.77  E(vib)   ...       0.00
freq.    3219.54  E(vib)   ...       0.00
freq.    3261.62  E(vib)   ...       0.00

------------
INNER ENERGY
------------

The inner energy is: U= E(el) + E(ZPE) + E(vib) + E(rot) + E(trans)
    E(el)   - is the total energy from the electronic structure calculation
              = E(kin-el) + E(nuc-el) + E(el-el) + E(nuc-nuc)
    E(ZPE)  - the the zero temperature vibrational energy from the frequency calculation
    E(vib)  - the the finite temperature correction to E(ZPE) due to population
              of excited vibrational states
    E(rot)  - is the rotational thermal energy
    E(trans)- is the translational thermal energy

Summary of contributions to the inner energy U:
Electronic energy                ...   -306.21802295 Eh
Zero point energy                ...      0.16448812 Eh     103.22 kcal/mol
Thermal vibrational correction   ...      0.00366360 Eh       2.30 kcal/mol
Thermal rotational correction    ...      0.00141627 Eh       0.89 kcal/mol
Thermal translational correction ...      0.00141627 Eh       0.89 kcal/mol
-----------------------------------------------------------------------
Total thermal energy                   -306.04703868 Eh

Summary of corrections to the electronic energy:
(perhaps to be used in another calculation)
Total thermal correction                  0.00649614 Eh       4.08 kcal/mol
Non-thermal (ZPE) correction              0.16448812 Eh     103.22 kcal/mol
-----------------------------------------------------------------------
Total correction                          0.17098427 Eh     107.29 kcal/mol

--------
ENTHALPY
--------

The enthalpy is H = U + kB*T
                kB is Boltzmann's constant
Total free energy                 ...   -306.04703868 Eh
Thermal Enthalpy correction       ...      0.00094421 Eh       0.59 kcal/mol
-----------------------------------------------------------------------
Total Enthalpy                    ...   -306.04609447 Eh

Note: Only C1 symmetry has been detected, increase convergence thresholds
      if your molecule has a higher symmetry. Symmetry factor of 1.0 is
      used for the rotational entropy correction.

Note: Rotational entropy computed according to Herzberg
Infrared and Raman Spectra, Chapter V,1, Van Nostrand Reinhold, 1945
Point Group:  C1, Symmetry Number:   1
Rotational constants in cm-1:     0.190015     0.066435     0.051157

Vibrational entropy computed according to the QRRHO of S. Grimme
Chem.Eur.J. 2012 18 9955

-------
ENTROPY
-------

The entropy contributions are T*S = T*(S(el)+S(vib)+S(rot)+S(trans))
     S(el)   - electronic entropy
     S(vib)  - vibrational entropy
     S(rot)  - rotational entropy
     S(trans)- translational entropy
The entropies will be listed as multiplied by the temperature to get
units of energy

Electronic entropy                ...      0.00000000 Eh      0.00 kcal/mol
Vibrational entropy               ...      0.00614179 Eh      3.85 kcal/mol
Rotational entropy                ...      0.01297833 Eh      8.14 kcal/mol
Translational entropy             ...      0.01885925 Eh     11.83 kcal/mol
-----------------------------------------------------------------------
Final entropy term                ...      0.03797938 Eh     23.83 kcal/mol

In case the symmetry of your molecule has not been determined correctly
or in case you have a reason to use a different symmetry number we print
out the resulting rotational entropy values for sn=1,12 :
 --------------------------------------------------------
|  sn= 1 | S(rot)=       0.01297833 Eh      8.14 kcal/mol|
|  sn= 2 | S(rot)=       0.01232388 Eh      7.73 kcal/mol|
|  sn= 3 | S(rot)=       0.01194105 Eh      7.49 kcal/mol|
|  sn= 4 | S(rot)=       0.01166942 Eh      7.32 kcal/mol|
|  sn= 5 | S(rot)=       0.01145873 Eh      7.19 kcal/mol|
|  sn= 6 | S(rot)=       0.01128659 Eh      7.08 kcal/mol|
|  sn= 7 | S(rot)=       0.01114104 Eh      6.99 kcal/mol|
|  sn= 8 | S(rot)=       0.01101497 Eh      6.91 kcal/mol|
|  sn= 9 | S(rot)=       0.01090376 Eh      6.84 kcal/mol|
|  sn=10 | S(rot)=       0.01080428 Eh      6.78 kcal/mol|
|  sn=11 | S(rot)=       0.01071429 Eh      6.72 kcal/mol|
|  sn=12 | S(rot)=       0.01063213 Eh      6.67 kcal/mol|
 --------------------------------------------------------

-------------------
GIBBS FREE ENERGY

                             ****ORCA TERMINATED NORMALLY****
TOTAL RUN TIME: 0 days 0 hours 18 minutes 36 seconds 320 msec
