                         Program Version 5.0.4 -  RELEASE  -
|  1> # ORCAForces - ../2023_04/pKa_prediction/extra_carbenes/Water/11_Water.inp
|  2> # Basic Mode
|  3> #
|  4> ! Opt FREQ wB97X D4 Def2-SVP SlowConv TightSCF DEFGRID2 Def2/J RIJCOSX CPCM(Water)
|  5>
|  6> %maxcore 4500
|  7>
|  8> %PAL NPROCS 4 END
|  9>
| 10> %geom
| 11> Maxiter 150
| 12> END
| 13>
| 14> * xyzfile 0 1 11.xyz
| 15>
| 16>                          ****END OF INPUT****
 Total Charge           Charge          ....    0
 Multiplicity           Mult            ....    1
 Number of Electrons    NEL             ....   56
Dispersion correction           -0.002167680
FINAL SINGLE POINT ENERGY      -306.892580145988
Dispersion correction            ... Starting D4
Dispersion correction           -0.002178373
FINAL SINGLE POINT ENERGY      -306.892583422589
Dispersion correction            ... Starting D4
Dispersion correction           -0.002177418
FINAL SINGLE POINT ENERGY      -306.892798276875
Dispersion correction            ... Starting D4
FINAL SINGLE POINT ENERGY      -306.893121122693
Dispersion correction           -0.002175510
FINAL SINGLE POINT ENERGY      -306.893137419323
Dispersion correction            ... Starting D4
Dispersion correction           -0.002175667
FINAL SINGLE POINT ENERGY      -306.893140600409
Dispersion correction            ... Starting D4
                    ***********************HURRAY********************

CARTESIAN COORDINATES (ANGSTROEM)
---------------------------------
  C     -0.000000    0.000000    0.824767
  N     -0.003410    1.162705    0.145195
  N      0.003409   -1.162705    0.145196
  C      0.355127    1.420995   -1.248636
  C     -0.355127   -1.420995   -1.248636
  H      0.943695    2.350699   -1.287755
  H     -0.943696   -2.350699   -1.287754
  H      0.984655    0.618193   -1.648508
  H     -0.984655   -0.618193   -1.648507
  H     -0.521790    1.553004   -1.904321
  H      0.521790   -1.553004   -1.904320
  C     -0.174803    2.384021    0.915778
  C      0.174803   -2.384021    0.915778
  H     -0.390164    2.122781    1.958252
  H      0.390164   -2.122782    1.958253
  H      0.734291    3.010631    0.877753
  H     -0.734290   -3.010631    0.877752
  H     -1.012889    2.982645    0.519645
  H      1.012889   -2.982644    0.519645

 Multiplicity           Mult            ....    1
 Number of Electrons    NEL             ....   56
 Basis Dimension        Dim             ....  158

ORBITAL ENERGIES
----------------

  NO   OCC          E(Eh)            E(eV)
   0   2.0000     -14.423752      -392.4902
   1   2.0000     -14.423744      -392.4900
   2   2.0000     -10.292707      -280.0788
   3   2.0000     -10.292685      -280.0782
   4   2.0000     -10.287306      -279.9318
   5   2.0000     -10.287277      -279.9310
   6   2.0000     -10.280196      -279.7384
   7   2.0000      -1.084025       -29.4978
   8   2.0000      -1.029134       -28.0041
   9   2.0000      -0.840894       -22.8819
  10   2.0000      -0.834260       -22.7014
  11   2.0000      -0.820611       -22.3300
  12   2.0000      -0.750846       -20.4316
  13   2.0000      -0.655198       -17.8288
  14   2.0000      -0.607335       -16.5264
  15   2.0000      -0.583786       -15.8856
  16   2.0000      -0.581394       -15.8205
  17   2.0000      -0.559913       -15.2360
  18   2.0000      -0.537419       -14.6239
  19   2.0000      -0.521599       -14.1934
  20   2.0000      -0.503145       -13.6913
  21   2.0000      -0.491223       -13.3669
  22   2.0000      -0.481176       -13.0935
  23   2.0000      -0.476153       -12.9568
  24   2.0000      -0.454442       -12.3660
  25   2.0000      -0.410052       -11.1581
  26   2.0000      -0.327269        -8.9054
  27   2.0000      -0.283282        -7.7085
  28   0.0000       0.125270         3.4088
  29   0.0000       0.150230         4.0880
  30   0.0000       0.171105         4.6560
  31   0.0000       0.197250         5.3675
  32   0.0000       0.198247         5.3946

MULLIKEN ATOMIC CHARGES
-----------------------
   0 C :   -0.194862
   1 N :   -0.328669
   2 N :   -0.328668
   3 C :    0.064295
   4 C :    0.064295
   5 H :    0.044032
   6 H :    0.044032
   7 H :    0.052314
   8 H :    0.052314
   9 H :    0.056968
  10 H :    0.056968
  11 C :    0.102917
  12 C :    0.102917
  13 H :    0.029419
  14 H :    0.029419
  15 H :    0.037116
  16 H :    0.037116
  17 H :    0.039039
  18 H :    0.039039
Sum of atomic charges:   -0.0000000

LOEWDIN ATOMIC CHARGES
----------------------
   0 C :   -0.263631
   1 N :   -0.059139
   2 N :   -0.059139
   3 C :    0.015775
   4 C :    0.015775
   5 H :    0.030142
   6 H :    0.030142
   7 H :    0.032306
   8 H :    0.032306
   9 H :    0.026420
  10 H :    0.026420
  11 C :    0.023158
  12 C :    0.023158
  13 H :    0.021000
  14 H :    0.021000
  15 H :    0.019860
  16 H :    0.019860
  17 H :    0.022295
  18 H :    0.022295

  Mayer bond orders larger than 0.100000
B(  0-C ,  1-N ) :   1.2947 B(  0-C ,  2-N ) :   1.2947 B(  1-N ,  3-C ) :   0.9331
B(  1-N , 11-C ) :   0.9752 B(  2-N ,  4-C ) :   0.9331 B(  2-N , 12-C ) :   0.9752
B(  3-C ,  5-H ) :   0.9702 B(  3-C ,  7-H ) :   0.9734 B(  3-C ,  9-H ) :   0.9738
B(  4-C ,  6-H ) :   0.9702 B(  4-C ,  8-H ) :   0.9734 B(  4-C , 10-H ) :   0.9738
B( 11-C , 13-H ) :   0.9699 B( 11-C , 15-H ) :   0.9733 B( 11-C , 17-H ) :   0.9768
B( 12-C , 14-H ) :   0.9699 B( 12-C , 16-H ) :   0.9733 B( 12-C , 18-H ) :   0.9768

Dispersion correction           -0.002175900
FINAL SINGLE POINT ENERGY      -306.893143469176

DIPOLE MOMENT
-------------
                                X             Y             Z
Electronic contribution:     -0.00000       0.00000       1.57609
Nuclear contribution   :      0.00000      -0.00000      -3.12040
                        -----------------------------------------
Total Dipole Moment    :      0.00000      -0.00000      -1.54431
                        -----------------------------------------
Magnitude (a.u.)       :      1.54431
Magnitude (Debye)      :      3.92533

Dispersion correction in the Hessian             ... Starting D4

VIBRATIONAL FREQUENCIES
-----------------------

Scaling factor for frequencies =  1.000000000  (already applied!)

   0:         0.00 cm**-1
   1:         0.00 cm**-1
   2:         0.00 cm**-1
   3:         0.00 cm**-1
   4:         0.00 cm**-1
   5:         0.00 cm**-1
   6:        65.08 cm**-1
   7:       152.21 cm**-1
   8:       171.00 cm**-1
   9:       185.55 cm**-1
  10:       197.95 cm**-1
  11:       240.07 cm**-1
  12:       284.76 cm**-1
  13:       325.24 cm**-1
  14:       356.03 cm**-1
  15:       433.16 cm**-1
  16:       439.15 cm**-1
  17:       504.17 cm**-1
  18:       622.83 cm**-1
  19:       892.11 cm**-1
  20:       917.67 cm**-1
  21:      1066.32 cm**-1
  22:      1069.90 cm**-1
  23:      1095.63 cm**-1
  24:      1109.93 cm**-1
  25:      1112.45 cm**-1
  26:      1156.43 cm**-1
  27:      1161.17 cm**-1
  28:      1165.38 cm**-1
  29:      1267.96 cm**-1
  30:      1334.37 cm**-1
  31:      1409.48 cm**-1
  32:      1417.17 cm**-1
  33:      1417.85 cm**-1
  34:      1418.73 cm**-1
  35:      1445.27 cm**-1
  36:      1448.69 cm**-1
  37:      1457.43 cm**-1
  38:      1457.60 cm**-1
  39:      1464.93 cm**-1
  40:      1467.24 cm**-1
  41:      1476.73 cm**-1
  42:      1480.83 cm**-1
  43:      1508.92 cm**-1
  44:      1591.58 cm**-1
  45:      3037.64 cm**-1
  46:      3039.76 cm**-1
  47:      3058.06 cm**-1
  48:      3062.53 cm**-1
  49:      3118.94 cm**-1
  50:      3119.00 cm**-1
  51:      3143.67 cm**-1
  52:      3146.26 cm**-1
  53:      3209.21 cm**-1
  54:      3209.28 cm**-1
  55:      3212.23 cm**-1
  56:      3214.24 cm**-1

IR SPECTRUM
-----------

 Mode   freq       eps      Int      T**2         TX        TY        TZ
       cm**-1   L/(mol*cm) km/mol    a.u.
----------------------------------------------------------------------------
  6:     65.08   0.000021    0.10  0.000099  (-0.000000  0.000000  0.009956)
  7:    152.21   0.001680    8.49  0.003444  ( 0.058464  0.005131  0.000000)
  8:    171.00   0.000002    0.01  0.000004  ( 0.000001  0.000000 -0.002109)
  9:    185.55   0.000070    0.35  0.000118  (-0.000000 -0.000000 -0.010842)
 10:    197.95   0.000867    4.38  0.001367  ( 0.033100  0.016489  0.000000)
 11:    240.07   0.002800   14.15  0.003639  ( 0.057276 -0.018941 -0.000000)
 12:    284.76   0.000831    4.20  0.000911  ( 0.000000  0.000000 -0.030176)
 13:    325.24   0.000018    0.09  0.000017  (-0.000000  0.000000  0.004131)
 14:    356.03   0.003699   18.70  0.003243  (-0.029833  0.048503 -0.000000)
 15:    433.16   0.000022    0.11  0.000016  ( 0.000000  0.000001  0.003956)
 16:    439.15   0.003662   18.51  0.002602  (-0.014713 -0.048844  0.000000)
 17:    504.17   0.000798    4.03  0.000494  ( 0.005628 -0.021495  0.000000)
 18:    622.83   0.000545    2.76  0.000273  ( 0.000000  0.000000  0.016530)
 19:    892.11   0.002810   14.20  0.000983  ( 0.000000  0.000000 -0.031353)
 20:    917.67   0.008312   42.01  0.002827  (-0.004467 -0.052978 -0.000000)
 21:   1066.32   0.001245    6.29  0.000364  (-0.000000  0.000000  0.019089)
 22:   1069.90   0.001290    6.52  0.000376  (-0.001889  0.019307 -0.000000)
 23:   1095.63   0.000719    3.63  0.000205  (-0.000000  0.000000  0.014309)
 24:   1109.93   0.000402    2.03  0.000113  ( 0.010540 -0.001433 -0.000000)
 25:   1112.45   0.000739    3.73  0.000207  ( 0.000000 -0.000000  0.014398)
 26:   1156.43   0.016578   83.78  0.004474  ( 0.011456  0.065896 -0.000000)
 27:   1161.17   0.000253    1.28  0.000068  (-0.000000  0.000002  0.008238)
 28:   1165.38   0.014982   75.71  0.004012  (-0.010782  0.062415 -0.000000)
 29:   1267.96   0.000401    2.03  0.000099  (-0.003444  0.009315  0.000000)
 30:   1334.37   0.006946   35.10  0.001624  ( 0.000000 -0.000000  0.040304)
 31:   1409.48   0.031993  161.68  0.007083  ( 0.008728  0.083709 -0.000000)
 32:   1417.17   0.000043    0.22  0.000009  ( 0.000000 -0.000004  0.003081)
 33:   1417.85   0.012963   65.51  0.002853  (-0.004298  0.053241  0.000000)
 34:   1418.73   0.000026    0.13  0.000006  (-0.000000  0.000003 -0.002381)
 35:   1445.27   0.000642    3.25  0.000139  ( 0.000000 -0.000000 -0.011778)
 36:   1448.69   0.000276    1.40  0.000059  ( 0.004978  0.005891 -0.000000)
 37:   1457.43   0.000534    2.70  0.000114  ( 0.000010 -0.000004 -0.010696)
 38:   1457.60   0.007688   38.85  0.001646  ( 0.036973 -0.016699  0.000003)
 39:   1464.93   0.008283   41.86  0.001764  (-0.010997 -0.040541 -0.000000)
 40:   1467.24   0.001981   10.01  0.000421  (-0.000000 -0.000000  0.020524)
 41:   1476.73   0.004207   21.26  0.000889  (-0.029331  0.005358 -0.000000)
 42:   1480.83   0.003054   15.43  0.000643  ( 0.000000  0.000000 -0.025367)
 43:   1508.92   0.001774    8.96  0.000367  (-0.000000 -0.000000  0.019154)
 44:   1591.58   0.113892  575.56  0.022331  (-0.010342 -0.149077 -0.000000)
 45:   3037.64   0.036592  184.92  0.003759  ( 0.004303  0.061161 -0.000001)
 46:   3039.76   0.002529   12.78  0.000260  ( 0.000000  0.000005  0.016114)
 47:   3058.06   0.008140   41.13  0.000831  (-0.001426  0.028785 -0.000001)
 48:   3062.53   0.013856   70.02  0.001412  ( 0.000000 -0.000000 -0.037575)
 49:   3118.94   0.000628    3.17  0.000063  (-0.000196 -0.000003  0.007926)
 50:   3119.00   0.021010  106.18  0.002102  ( 0.045842  0.000787  0.000034)
 51:   3143.67   0.000615    3.11  0.000061  (-0.000001 -0.000000 -0.007816)
 52:   3146.26   0.009046   45.71  0.000897  (-0.025232 -0.016142  0.000000)
 53:   3209.21   0.001127    5.70  0.000110  ( 0.004990  0.009204 -0.000013)
 54:   3209.28   0.003035   15.34  0.000295  (-0.000004 -0.000007 -0.017180)
 55:   3212.23   0.004471   22.59  0.000434  ( 0.013644 -0.015755 -0.000000)
 56:   3214.24   0.000296    1.50  0.000029  ( 0.000001 -0.000001  0.005360)

--------------------------
THERMOCHEMISTRY AT 298.15K
--------------------------

Temperature         ... 298.15 K
Pressure            ... 1.00 atm
Total Mass          ... 100.16 AMU

Throughout the following assumptions are being made:
  (1) The electronic state is orbitally nondegenerate
  (2) There are no thermally accessible electronically excited states
  (3) Hindered rotations indicated by low frequency modes are not
      treated as such but are treated as vibrations and this may
      cause some error
  (4) All equations used are the standard statistical mechanics
      equations for an ideal gas
  (5) All vibrations are strictly harmonic

freq.      65.08  E(vib)   ...       0.50
freq.     152.21  E(vib)   ...       0.40
freq.     171.00  E(vib)   ...       0.38
freq.     185.55  E(vib)   ...       0.37
freq.     197.95  E(vib)   ...       0.35
freq.     240.07  E(vib)   ...       0.31
freq.     284.76  E(vib)   ...       0.28
freq.     325.24  E(vib)   ...       0.24
freq.     356.03  E(vib)   ...       0.22
freq.     433.16  E(vib)   ...       0.17
freq.     439.15  E(vib)   ...       0.17
freq.     504.17  E(vib)   ...       0.14
freq.     622.83  E(vib)   ...       0.09
freq.     892.11  E(vib)   ...       0.03
freq.     917.67  E(vib)   ...       0.03
freq.    1066.32  E(vib)   ...       0.02
freq.    1069.90  E(vib)   ...       0.02
freq.    1095.63  E(vib)   ...       0.02
freq.    1109.93  E(vib)   ...       0.02
freq.    1112.45  E(vib)   ...       0.01
freq.    1156.43  E(vib)   ...       0.01
freq.    1161.17  E(vib)   ...       0.01
freq.    1165.38  E(vib)   ...       0.01
freq.    1267.96  E(vib)   ...       0.01
freq.    1334.37  E(vib)   ...       0.01
freq.    1409.48  E(vib)   ...       0.00
freq.    1417.17  E(vib)   ...       0.00
freq.    1417.85  E(vib)   ...       0.00
freq.    1418.73  E(vib)   ...       0.00
freq.    1445.27  E(vib)   ...       0.00
freq.    1448.69  E(vib)   ...       0.00
freq.    1457.43  E(vib)   ...       0.00
freq.    1457.60  E(vib)   ...       0.00
freq.    1464.93  E(vib)   ...       0.00
freq.    1467.24  E(vib)   ...       0.00
freq.    1476.73  E(vib)   ...       0.00
freq.    1480.83  E(vib)   ...       0.00
freq.    1508.92  E(vib)   ...       0.00
freq.    1591.58  E(vib)   ...       0.00
freq.    3037.64  E(vib)   ...       0.00
freq.    3039.76  E(vib)   ...       0.00
freq.    3058.06  E(vib)   ...       0.00
freq.    3062.53  E(vib)   ...       0.00
freq.    3118.94  E(vib)   ...       0.00
freq.    3119.00  E(vib)   ...       0.00
freq.    3143.67  E(vib)   ...       0.00
freq.    3146.26  E(vib)   ...       0.00
freq.    3209.21  E(vib)   ...       0.00
freq.    3209.28  E(vib)   ...       0.00
freq.    3212.23  E(vib)   ...       0.00
freq.    3214.24  E(vib)   ...       0.00

------------
INNER ENERGY
------------

The inner energy is: U= E(el) + E(ZPE) + E(vib) + E(rot) + E(trans)
    E(el)   - is the total energy from the electronic structure calculation
              = E(kin-el) + E(nuc-el) + E(el-el) + E(nuc-nuc)
    E(ZPE)  - the the zero temperature vibrational energy from the frequency calculation
    E(vib)  - the the finite temperature correction to E(ZPE) due to population
              of excited vibrational states
    E(rot)  - is the rotational thermal energy
    E(trans)- is the translational thermal energy

Summary of contributions to the inner energy U:
Electronic energy                ...   -306.89314347 Eh
Zero point energy                ...      0.17168220 Eh     107.73 kcal/mol
Thermal vibrational correction   ...      0.00620260 Eh       3.89 kcal/mol
Thermal rotational correction    ...      0.00141627 Eh       0.89 kcal/mol
Thermal translational correction ...      0.00141627 Eh       0.89 kcal/mol
-----------------------------------------------------------------------
Total thermal energy                   -306.71242612 Eh

Summary of corrections to the electronic energy:
(perhaps to be used in another calculation)
Total thermal correction                  0.00903515 Eh       5.67 kcal/mol
Non-thermal (ZPE) correction              0.17168220 Eh     107.73 kcal/mol
-----------------------------------------------------------------------
Total correction                          0.18071735 Eh     113.40 kcal/mol

--------
ENTHALPY
--------

The enthalpy is H = U + kB*T
                kB is Boltzmann's constant
Total free energy                 ...   -306.71242612 Eh
Thermal Enthalpy correction       ...      0.00094421 Eh       0.59 kcal/mol
-----------------------------------------------------------------------
Total Enthalpy                    ...   -306.71148191 Eh

Note: Rotational entropy computed according to Herzberg
Infrared and Raman Spectra, Chapter V,1, Van Nostrand Reinhold, 1945
Point Group:  C2, Symmetry Number:   2
Rotational constants in cm-1:     0.162517     0.056856     0.044688

Vibrational entropy computed according to the QRRHO of S. Grimme
Chem.Eur.J. 2012 18 9955

-------
ENTROPY
-------

The entropy contributions are T*S = T*(S(el)+S(vib)+S(rot)+S(trans))
     S(el)   - electronic entropy
     S(vib)  - vibrational entropy
     S(rot)  - rotational entropy
     S(trans)- translational entropy
The entropies will be listed as multiplied by the temperature to get
units of energy

Electronic entropy                ...      0.00000000 Eh      0.00 kcal/mol
Vibrational entropy               ...      0.01062925 Eh      6.67 kcal/mol
Rotational entropy                ...      0.01253501 Eh      7.87 kcal/mol
Translational entropy             ...      0.01887358 Eh     11.84 kcal/mol
-----------------------------------------------------------------------
Final entropy term                ...      0.04203784 Eh     26.38 kcal/mol

In case the symmetry of your molecule has not been determined correctly
or in case you have a reason to use a different symmetry number we print
out the resulting rotational entropy values for sn=1,12 :
 --------------------------------------------------------
|  sn= 1 | S(rot)=       0.01318946 Eh      8.28 kcal/mol|
|  sn= 2 | S(rot)=       0.01253501 Eh      7.87 kcal/mol|
|  sn= 3 | S(rot)=       0.01215218 Eh      7.63 kcal/mol|
|  sn= 4 | S(rot)=       0.01188055 Eh      7.46 kcal/mol|
|  sn= 5 | S(rot)=       0.01166986 Eh      7.32 kcal/mol|
|  sn= 6 | S(rot)=       0.01149772 Eh      7.21 kcal/mol|
|  sn= 7 | S(rot)=       0.01135217 Eh      7.12 kcal/mol|
|  sn= 8 | S(rot)=       0.01122610 Eh      7.04 kcal/mol|
|  sn= 9 | S(rot)=       0.01111489 Eh      6.97 kcal/mol|
|  sn=10 | S(rot)=       0.01101541 Eh      6.91 kcal/mol|
|  sn=11 | S(rot)=       0.01092542 Eh      6.86 kcal/mol|
|  sn=12 | S(rot)=       0.01084326 Eh      6.80 kcal/mol|
 --------------------------------------------------------

-------------------
GIBBS FREE ENERGY

                             ****ORCA TERMINATED NORMALLY****
TOTAL RUN TIME: 0 days 0 hours 7 minutes 22 seconds 718 msec
