                         Program Version 5.0.4 -  RELEASE  -
|  1> # ORCA 5.0.4 - /users/bwb16179/postgrad/2024_06/pKa_Reviewer_Comments/Gas_Z=1/4_prot.inp # write input file
|  2> # Basic Mode
|  3> #
|  4> ! Opt Freq wB97X Def2-TZVP D4 SlowConv TightSCF Defgrid2 Def2/J RIJCOSX CPCM(Water)
|  5>
|  6> %PAL NPROCS 16 END
|  7>
|  8> %maxcore 4500
|  9>
| 10> %geom
| 11> Maxiter 150
| 12> END
| 13>
| 14> * xyzfile 0 1 butylamine.xyz
| 15>
| 16>                          ****END OF INPUT****
 Total Charge           Charge          ....    0
 Multiplicity           Mult            ....    1
 Number of Electrons    NEL             ....   42
Dispersion correction           -0.001348112
FINAL SINGLE POINT ENERGY      -213.827305688769
Dispersion correction            ... Starting D4
Dispersion correction           -0.001345666
FINAL SINGLE POINT ENERGY      -213.831749581901
Dispersion correction            ... Starting D4
Dispersion correction           -0.001345462
FINAL SINGLE POINT ENERGY      -213.831950652428
Dispersion correction            ... Starting D4
FINAL SINGLE POINT ENERGY      -213.832031269720
Dispersion correction           -0.001345991
FINAL SINGLE POINT ENERGY      -213.832036573468
Dispersion correction            ... Starting D4
Dispersion correction           -0.001346070
FINAL SINGLE POINT ENERGY      -213.832038729365
Dispersion correction            ... Starting D4
                    ***********************HURRAY********************

CARTESIAN COORDINATES (ANGSTROEM)
---------------------------------
  C     -3.914512    0.954142   -0.039795
  C     -2.733453   -0.005426    0.002109
  H     -4.866329    0.419615   -0.024637
  H     -3.888332    1.565688   -0.945567
  H     -3.897251    1.631330    0.818247
  C     -1.391014    0.712877   -0.028575
  H     -2.791866   -0.697101   -0.844907
  H     -2.791341   -0.620610    0.906528
  C     -0.209569   -0.240099    0.027591
  H     -1.324716    1.412239    0.812262
  H     -1.322471    1.315511   -0.942688
  N      1.058456    0.489187   -0.013840
  H     -0.302642   -0.972023   -0.787508
  H     -0.245698   -0.805235    0.963855
  H      1.152429    0.949241   -0.912304
  H      1.832086   -0.161288    0.047819

 Multiplicity           Mult            ....    1
 Number of Electrons    NEL             ....   42
 Basis Dimension        Dim             ....  221

ORBITAL ENERGIES
----------------

  NO   OCC          E(Eh)            E(eV)
   0   2.0000     -14.365779      -390.9127
   1   2.0000     -10.266391      -279.3627
   2   2.0000     -10.242510      -278.7129
   3   2.0000     -10.239368      -278.6274
   4   2.0000     -10.235066      -278.5103
   5   2.0000      -1.007560       -27.4171
   6   2.0000      -0.915500       -24.9120
   7   2.0000      -0.831166       -22.6172
   8   2.0000      -0.734639       -19.9905
   9   2.0000      -0.696755       -18.9597
  10   2.0000      -0.600021       -16.3274
  11   2.0000      -0.577029       -15.7017
  12   2.0000      -0.551282       -15.0011
  13   2.0000      -0.525425       -14.2975
  14   2.0000      -0.511425       -13.9166
  15   2.0000      -0.478658       -13.0250
  16   2.0000      -0.452855       -12.3228
  17   2.0000      -0.431216       -11.7340
  18   2.0000      -0.425781       -11.5861
  19   2.0000      -0.419833       -11.4242
  20   2.0000      -0.347426        -9.4540
  21   0.0000       0.123887         3.3711
  22   0.0000       0.136424         3.7123
  23   0.0000       0.156814         4.2671
  24   0.0000       0.166410         4.5282
  25   0.0000       0.175109         4.7650

MULLIKEN ATOMIC CHARGES
-----------------------
   0 C :   -0.374832
   1 C :   -0.184643
   2 H :    0.127604
   3 H :    0.116335
   4 H :    0.116941
   5 C :   -0.182093
   6 H :    0.098676
   7 H :    0.099009
   8 C :   -0.098245
   9 H :    0.091824
  10 H :    0.099179
  11 N :   -0.599628
  12 H :    0.091675
  13 H :    0.107483
  14 H :    0.243926
  15 H :    0.246788
Sum of atomic charges:   -0.0000000

LOEWDIN ATOMIC CHARGES
----------------------
   0 C :   -0.316615
   1 C :   -0.296752
   2 H :    0.118291
   3 H :    0.118531
   4 H :    0.118539
   5 C :   -0.281825
   6 H :    0.133280
   7 H :    0.133823
   8 C :   -0.341538
   9 H :    0.132690
  10 H :    0.134767
  11 N :   -0.205404
  12 H :    0.115243
  13 H :    0.127460
  14 H :    0.155325
  15 H :    0.154184

  Mayer bond orders larger than 0.100000
B(  0-C ,  1-C ) :   0.9665 B(  0-C ,  2-H ) :   0.9852 B(  0-C ,  3-H ) :   0.9812
B(  0-C ,  4-H ) :   0.9816 B(  1-C ,  5-C ) :   0.9723 B(  1-C ,  6-H ) :   0.9749
B(  1-C ,  7-H ) :   0.9780 B(  5-C ,  8-C ) :   0.9681 B(  5-C ,  9-H ) :   0.9661
B(  5-C , 10-H ) :   0.9706 B(  8-C , 11-N ) :   1.0093 B(  8-C , 12-H ) :   0.9923
B(  8-C , 13-H ) :   0.9734 B( 11-N , 14-H ) :   0.9288 B( 11-N , 15-H ) :   0.9325

Dispersion correction           -0.001346084
FINAL SINGLE POINT ENERGY      -213.832039575271

DIPOLE MOMENT
-------------
                                X             Y             Z
Electronic contribution:      2.78523      -0.33663       0.07758
Nuclear contribution   :     -2.78122      -0.16180      -0.63051
                        -----------------------------------------
Total Dipole Moment    :      0.00402      -0.49842      -0.55293
                        -----------------------------------------
Magnitude (a.u.)       :      0.74443
Magnitude (Debye)      :      1.89218

Dispersion correction in the Hessian             ... Starting D4

VIBRATIONAL FREQUENCIES
-----------------------

Scaling factor for frequencies =  1.000000000  (already applied!)

   0:         0.00 cm**-1
   1:         0.00 cm**-1
   2:         0.00 cm**-1
   3:         0.00 cm**-1
   4:         0.00 cm**-1
   5:         0.00 cm**-1
   6:       113.14 cm**-1
   7:       120.26 cm**-1
   8:       184.84 cm**-1
   9:       244.53 cm**-1
  10:       254.78 cm**-1
  11:       403.61 cm**-1
  12:       442.03 cm**-1
  13:       743.96 cm**-1
  14:       806.29 cm**-1
  15:       881.11 cm**-1
  16:       914.25 cm**-1
  17:       963.55 cm**-1
  18:      1001.49 cm**-1
  19:      1077.06 cm**-1
  20:      1094.52 cm**-1
  21:      1118.52 cm**-1
  22:      1171.32 cm**-1
  23:      1229.63 cm**-1
  24:      1276.69 cm**-1
  25:      1313.05 cm**-1
  26:      1327.54 cm**-1
  27:      1340.96 cm**-1
  28:      1397.26 cm**-1
  29:      1412.66 cm**-1
  30:      1444.30 cm**-1
  31:      1474.35 cm**-1
  32:      1484.77 cm**-1
  33:      1486.90 cm**-1
  34:      1501.71 cm**-1
  35:      1514.27 cm**-1
  36:      1637.56 cm**-1
  37:      3002.32 cm**-1
  38:      3036.62 cm**-1
  39:      3048.44 cm**-1
  40:      3053.38 cm**-1
  41:      3069.58 cm**-1
  42:      3082.21 cm**-1
  43:      3095.35 cm**-1
  44:      3124.52 cm**-1
  45:      3133.80 cm**-1
  46:      3531.94 cm**-1
  47:      3604.92 cm**-1

IR SPECTRUM
-----------

 Mode   freq       eps      Int      T**2         TX        TY        TZ
       cm**-1   L/(mol*cm) km/mol    a.u.
----------------------------------------------------------------------------
  6:    113.14   0.001178    5.95  0.003249  (-0.017126  0.041004 -0.035691)
  7:    120.26   0.000661    3.34  0.001714  ( 0.021333  0.028032 -0.021756)
  8:    184.84   0.000149    0.75  0.000252  (-0.008494 -0.012002  0.005946)
  9:    244.53   0.014210   71.81  0.018134  (-0.072734  0.082131 -0.078093)
 10:    254.78   0.000899    4.54  0.001101  (-0.021887  0.018428 -0.016810)
 11:    403.61   0.000010    0.05  0.000008  ( 0.001072  0.002119  0.001529)
 12:    442.03   0.002678   13.53  0.001891  ( 0.038950 -0.004487  0.018797)
 13:    743.96   0.001792    9.06  0.000752  (-0.000791 -0.007919 -0.026237)
 14:    806.29   0.003242   16.38  0.001255  (-0.016785 -0.029740 -0.009403)
 15:    881.11   0.036053  182.20  0.012769  ( 0.055859  0.080134  0.056809)
 16:    914.25   0.000864    4.36  0.000295  (-0.004488  0.010912  0.012474)
 17:    963.55   0.003881   19.61  0.001257  (-0.011430 -0.026881 -0.020089)
 18:   1001.49   0.002914   14.72  0.000908  ( 0.020915  0.020250  0.007770)
 19:   1077.06   0.000110    0.56  0.000032  (-0.000762  0.004149  0.003749)
 20:   1094.52   0.001006    5.08  0.000287  (-0.014022 -0.007221 -0.006162)
 21:   1118.52   0.003843   19.42  0.001072  ( 0.031537  0.008262 -0.003058)
 22:   1171.32   0.003449   17.43  0.000919  ( 0.002623  0.023775  0.018624)
 23:   1229.63   0.000165    0.83  0.000042  (-0.002105 -0.003984  0.004644)
 24:   1276.69   0.000453    2.29  0.000111  ( 0.004251 -0.002141 -0.009380)
 25:   1313.05   0.000016    0.08  0.000004  (-0.000485  0.001428 -0.001205)
 26:   1327.54   0.000041    0.21  0.000010  (-0.001515  0.000637  0.002615)
 27:   1340.96   0.000464    2.34  0.000108  ( 0.007977  0.000575 -0.006630)
 28:   1397.26   0.000217    1.09  0.000048  ( 0.004918 -0.004862  0.000730)
 29:   1412.66   0.000613    3.10  0.000135  (-0.007442  0.008932 -0.000376)
 30:   1444.30   0.003498   17.68  0.000756  (-0.026872 -0.004229  0.003987)
 31:   1474.35   0.000179    0.90  0.000038  (-0.003876 -0.004730  0.000659)
 32:   1484.77   0.001652    8.35  0.000347  ( 0.004304 -0.000680 -0.018117)
 33:   1486.90   0.000944    4.77  0.000198  (-0.005619  0.000745 -0.012883)
 34:   1501.71   0.001957    9.89  0.000407  ( 0.008801  0.018071  0.001626)
 35:   1514.27   0.001660    8.39  0.000342  ( 0.005854 -0.017335  0.002696)
 36:   1637.56   0.011258   56.89  0.002145  ( 0.034379 -0.002169 -0.030964)
 37:   3002.32   0.022754  114.99  0.002365  (-0.011877 -0.042416 -0.020612)
 38:   3036.62   0.007467   37.73  0.000767  ( 0.006078  0.026442 -0.005587)
 39:   3048.44   0.019193   97.00  0.001965  (-0.001723  0.044194 -0.002955)
 40:   3053.38   0.006194   31.30  0.000633  ( 0.021078 -0.013697  0.001069)
 41:   3069.58   0.002670   13.49  0.000271  (-0.001031 -0.016410  0.001057)
 42:   3082.21   0.002350   11.88  0.000238  ( 0.000502  0.012001 -0.009680)
 43:   3095.35   0.028006  141.53  0.002824  ( 0.000188  0.000206 -0.053136)
 44:   3124.52   0.019940  100.77  0.001992  (-0.000356  0.001882  0.044585)
 45:   3133.80   0.011596   58.60  0.001155  (-0.023015 -0.024991  0.000657)
 46:   3531.94   0.000229    1.16  0.000020  (-0.002987  0.000951  0.003229)
 47:   3604.92   0.001262    6.38  0.000109  ( 0.004733 -0.007463  0.005584)

--------------------------
THERMOCHEMISTRY AT 298.15K
--------------------------

Temperature         ... 298.15 K
Pressure            ... 1.00 atm
Total Mass          ... 73.14 AMU

Throughout the following assumptions are being made:
  (1) The electronic state is orbitally nondegenerate
  (2) There are no thermally accessible electronically excited states
  (3) Hindered rotations indicated by low frequency modes are not
      treated as such but are treated as vibrations and this may
      cause some error
  (4) All equations used are the standard statistical mechanics
      equations for an ideal gas
  (5) All vibrations are strictly harmonic

freq.     113.14  E(vib)   ...       0.45
freq.     120.26  E(vib)   ...       0.44
freq.     184.84  E(vib)   ...       0.37
freq.     244.53  E(vib)   ...       0.31
freq.     254.78  E(vib)   ...       0.30
freq.     403.61  E(vib)   ...       0.19
freq.     442.03  E(vib)   ...       0.17
freq.     743.96  E(vib)   ...       0.06
freq.     806.29  E(vib)   ...       0.05
freq.     881.11  E(vib)   ...       0.04
freq.     914.25  E(vib)   ...       0.03
freq.     963.55  E(vib)   ...       0.03
freq.    1001.49  E(vib)   ...       0.02
freq.    1077.06  E(vib)   ...       0.02
freq.    1094.52  E(vib)   ...       0.02
freq.    1118.52  E(vib)   ...       0.01
freq.    1171.32  E(vib)   ...       0.01
freq.    1229.63  E(vib)   ...       0.01
freq.    1276.69  E(vib)   ...       0.01
freq.    1313.05  E(vib)   ...       0.01
freq.    1327.54  E(vib)   ...       0.01
freq.    1340.96  E(vib)   ...       0.01
freq.    1397.26  E(vib)   ...       0.00
freq.    1412.66  E(vib)   ...       0.00
freq.    1444.30  E(vib)   ...       0.00
freq.    1474.35  E(vib)   ...       0.00
freq.    1484.77  E(vib)   ...       0.00
freq.    1486.90  E(vib)   ...       0.00
freq.    1501.71  E(vib)   ...       0.00
freq.    1514.27  E(vib)   ...       0.00
freq.    1637.56  E(vib)   ...       0.00
freq.    3002.32  E(vib)   ...       0.00
freq.    3036.62  E(vib)   ...       0.00
freq.    3048.44  E(vib)   ...       0.00
freq.    3053.38  E(vib)   ...       0.00
freq.    3069.58  E(vib)   ...       0.00
freq.    3082.21  E(vib)   ...       0.00
freq.    3095.35  E(vib)   ...       0.00
freq.    3124.52  E(vib)   ...       0.00
freq.    3133.80  E(vib)   ...       0.00
freq.    3531.94  E(vib)   ...       0.00
freq.    3604.92  E(vib)   ...       0.00

------------
INNER ENERGY
------------

The inner energy is: U= E(el) + E(ZPE) + E(vib) + E(rot) + E(trans)
    E(el)   - is the total energy from the electronic structure calculation
              = E(kin-el) + E(nuc-el) + E(el-el) + E(nuc-nuc)
    E(ZPE)  - the the zero temperature vibrational energy from the frequency calculation
    E(vib)  - the the finite temperature correction to E(ZPE) due to population
              of excited vibrational states
    E(rot)  - is the rotational thermal energy
    E(trans)- is the translational thermal energy

Summary of contributions to the inner energy U:
Electronic energy                ...   -213.83203958 Eh
Zero point energy                ...      0.15072354 Eh      94.58 kcal/mol
Thermal vibrational correction   ...      0.00410389 Eh       2.58 kcal/mol
Thermal rotational correction    ...      0.00141627 Eh       0.89 kcal/mol
Thermal translational correction ...      0.00141627 Eh       0.89 kcal/mol
-----------------------------------------------------------------------
Total thermal energy                   -213.67437961 Eh

Summary of corrections to the electronic energy:
(perhaps to be used in another calculation)
Total thermal correction                  0.00693643 Eh       4.35 kcal/mol
Non-thermal (ZPE) correction              0.15072354 Eh      94.58 kcal/mol
-----------------------------------------------------------------------
Total correction                          0.15765997 Eh      98.93 kcal/mol

--------
ENTHALPY
--------

The enthalpy is H = U + kB*T
                kB is Boltzmann's constant
Total free energy                 ...   -213.67437961 Eh
Thermal Enthalpy correction       ...      0.00094421 Eh       0.59 kcal/mol
-----------------------------------------------------------------------
Total Enthalpy                    ...   -213.67343540 Eh

Note: Only C1 symmetry has been detected, increase convergence thresholds
      if your molecule has a higher symmetry. Symmetry factor of 1.0 is
      used for the rotational entropy correction.

Note: Rotational entropy computed according to Herzberg
Infrared and Raman Spectra, Chapter V,1, Van Nostrand Reinhold, 1945
Point Group:  C1, Symmetry Number:   1
Rotational constants in cm-1:     0.608343     0.065751     0.062387

Vibrational entropy computed according to the QRRHO of S. Grimme
Chem.Eur.J. 2012 18 9955

-------
ENTROPY
-------

The entropy contributions are T*S = T*(S(el)+S(vib)+S(rot)+S(trans))
     S(el)   - electronic entropy
     S(vib)  - vibrational entropy
     S(rot)  - rotational entropy
     S(trans)- translational entropy
The entropies will be listed as multiplied by the temperature to get
units of energy

Electronic entropy                ...      0.00000000 Eh      0.00 kcal/mol
Vibrational entropy               ...      0.00710649 Eh      4.46 kcal/mol
Rotational entropy                ...      0.01234018 Eh      7.74 kcal/mol
Translational entropy             ...      0.01842822 Eh     11.56 kcal/mol
-----------------------------------------------------------------------
Final entropy term                ...      0.03787490 Eh     23.77 kcal/mol

In case the symmetry of your molecule has not been determined correctly
or in case you have a reason to use a different symmetry number we print
out the resulting rotational entropy values for sn=1,12 :
 --------------------------------------------------------
|  sn= 1 | S(rot)=       0.01234018 Eh      7.74 kcal/mol|
|  sn= 2 | S(rot)=       0.01168573 Eh      7.33 kcal/mol|
|  sn= 3 | S(rot)=       0.01130290 Eh      7.09 kcal/mol|
|  sn= 4 | S(rot)=       0.01103127 Eh      6.92 kcal/mol|
|  sn= 5 | S(rot)=       0.01082058 Eh      6.79 kcal/mol|
|  sn= 6 | S(rot)=       0.01064844 Eh      6.68 kcal/mol|
|  sn= 7 | S(rot)=       0.01050289 Eh      6.59 kcal/mol|
|  sn= 8 | S(rot)=       0.01037682 Eh      6.51 kcal/mol|
|  sn= 9 | S(rot)=       0.01026561 Eh      6.44 kcal/mol|
|  sn=10 | S(rot)=       0.01016613 Eh      6.38 kcal/mol|
|  sn=11 | S(rot)=       0.01007614 Eh      6.32 kcal/mol|
|  sn=12 | S(rot)=       0.00999398 Eh      6.27 kcal/mol|
 --------------------------------------------------------

-------------------
GIBBS FREE ENERGY
-------------------

The Gibbs free energy is G = H - T*S

                             ****ORCA TERMINATED NORMALLY****
TOTAL RUN TIME: 0 days 0 hours 3 minutes 57 seconds 980 msec
