                         Program Version 5.0.3 -  RELEASE  -
|  1> # ORCAForces - ../2023_02/pKa_prediction/Yates_carbene_xyzs/Our_level/Uncharged/Water/2/PhH_Water.inp
|  2> # Basic Mode
|  3> #
|  4> ! Opt FREQ wB97X D4 Def2-SVP SlowConv TightSCF DEFGRID2 Def2/J RIJCOSX CPCM(Water)
|  5>
|  6> %maxcore 4500
|  7>
|  8> %PAL NPROCS 4 END
|  9>
| 10> %geom
| 11> Maxiter 150
| 12> END
| 13>
| 14> * xyzfile 0 1 PhH.xyz
| 15>
| 16>                          ****END OF INPUT****
 Total Charge           Charge          ....    0
 Multiplicity           Mult            ....    1
 Number of Electrons    NEL             ....  116
Dispersion correction           -0.005803560
FINAL SINGLE POINT ENERGY      -687.624929841373
Dispersion correction            ... Starting D4
Dispersion correction           -0.005803110
FINAL SINGLE POINT ENERGY      -687.626102198388
Dispersion correction            ... Starting D4
Dispersion correction           -0.005802447
FINAL SINGLE POINT ENERGY      -687.626133951807
Dispersion correction            ... Starting D4
FINAL SINGLE POINT ENERGY      -687.626152681811
Dispersion correction           -0.005802049
FINAL SINGLE POINT ENERGY      -687.626163407034
Dispersion correction            ... Starting D4
Dispersion correction           -0.005801881
FINAL SINGLE POINT ENERGY      -687.626177563309
Dispersion correction            ... Starting D4
                    ***********************HURRAY********************

CARTESIAN COORDINATES (ANGSTROEM)
---------------------------------
  C     -0.002310    0.674970   -1.836966
  C      0.002313   -0.674970   -1.836966
  H     -0.017629    1.379468   -2.665582
  H      0.017633   -1.379468   -2.665582
  C     -0.011104    2.420257   -0.058431
  C     -0.598092    2.750479    1.165891
  C      0.569761    3.416221   -0.846627
  C     -0.594812    4.073733    1.600022
  H     -1.051655    1.961340    1.768526
  C      0.557449    4.740451   -0.408736
  H      1.047004    3.162124   -1.796406
  C     -0.021045    5.074996    0.814695
  H     -1.055078    4.324778    2.559863
  H      1.015206    5.514694   -1.030674
  H     -0.025670    6.113714    1.156011
  C      0.011104   -2.420257   -0.058430
  C      0.598093   -2.750480    1.165891
  C     -0.569763   -3.416220   -0.846627
  C      0.594812   -4.073733    1.600021
  H      1.051657   -1.961341    1.768526
  C     -0.557452   -4.740451   -0.408735
  H     -1.047005   -3.162123   -1.796405
  C      0.021044   -5.074996    0.814695
  H      1.055079   -4.324779    2.559862
  H     -1.015209   -5.514694   -1.030673
  H      0.025669   -6.113714    1.156011
  C     -0.000000    0.000000    0.351299
  N     -0.006538    1.063095   -0.498798
  N      0.006540   -1.063095   -0.498798

 Multiplicity           Mult            ....    1
 Number of Electrons    NEL             ....  116
 Basis Dimension        Dim             ....  298

ORBITAL ENERGIES
----------------

  NO   OCC          E(Eh)            E(eV)
   0   2.0000     -14.470760      -393.7694
   1   2.0000     -14.470759      -393.7694
   2   2.0000     -10.326164      -280.9892
   3   2.0000     -10.326110      -280.9877
   4   2.0000     -10.308502      -280.5086
   5   2.0000     -10.307892      -280.4920
   6   2.0000     -10.294481      -280.1271
   7   2.0000     -10.284106      -279.8448
   8   2.0000     -10.284103      -279.8447
   9   2.0000     -10.283051      -279.8160
  10   2.0000     -10.283049      -279.8160
  11   2.0000     -10.282498      -279.8010
  12   2.0000     -10.282496      -279.8009
  13   2.0000     -10.280950      -279.7589
  14   2.0000     -10.280948      -279.7588
  15   2.0000     -10.278819      -279.7009
  16   2.0000     -10.278818      -279.7009
  17   2.0000      -1.167662       -31.7737
  18   2.0000      -1.067097       -29.0372
  19   2.0000      -0.996285       -27.1103
  20   2.0000      -0.977839       -26.6084
  21   2.0000      -0.911588       -24.8056
  22   2.0000      -0.883719       -24.0472
  23   2.0000      -0.878234       -23.8980
  24   2.0000      -0.865753       -23.5584
  25   2.0000      -0.860270       -23.4091
  26   2.0000      -0.782084       -21.2816
  27   2.0000      -0.761204       -20.7134
  28   2.0000      -0.731031       -19.8924
  29   2.0000      -0.724592       -19.7172
  30   2.0000      -0.695375       -18.9221
  31   2.0000      -0.685686       -18.6585
  32   2.0000      -0.663298       -18.0493
  33   2.0000      -0.640329       -17.4242
  34   2.0000      -0.608123       -16.5479
  35   2.0000      -0.594675       -16.1819
  36   2.0000      -0.585977       -15.9453
  37   2.0000      -0.576474       -15.6867
  38   2.0000      -0.566295       -15.4097
  39   2.0000      -0.562886       -15.3169
  40   2.0000      -0.546675       -14.8758
  41   2.0000      -0.538347       -14.6492
  42   2.0000      -0.534611       -14.5475
  43   2.0000      -0.532194       -14.4817
  44   2.0000      -0.531757       -14.4698
  45   2.0000      -0.509234       -13.8570
  46   2.0000      -0.490106       -13.3365
  47   2.0000      -0.469568       -12.7776
  48   2.0000      -0.464527       -12.6404
  49   2.0000      -0.456554       -12.4235
  50   2.0000      -0.450378       -12.2554
  51   2.0000      -0.436150       -11.8682
  52   2.0000      -0.370123       -10.0716
  53   2.0000      -0.358992        -9.7687
  54   2.0000      -0.357750        -9.7349
  55   2.0000      -0.336382        -9.1534
  56   2.0000      -0.327203        -8.9036
  57   2.0000      -0.326203        -8.8764
  58   0.0000       0.048263         1.3133
  59   0.0000       0.059963         1.6317
  60   0.0000       0.064457         1.7540
  61   0.0000       0.067396         1.8339
  62   0.0000       0.123117         3.3502

MULLIKEN ATOMIC CHARGES
-----------------------
   0 C :    0.035027
   1 C :    0.035029
   2 H :    0.081527
   3 H :    0.081527
   4 C :    0.159457
   5 C :   -0.046364
   6 C :   -0.073266
   7 C :   -0.027658
   8 H :    0.020364
   9 C :   -0.031140
  10 H :    0.036060
  11 C :   -0.023270
  12 H :    0.042995
  13 H :    0.043285
  14 H :    0.040225
  15 C :    0.159451
  16 C :   -0.046359
  17 C :   -0.073262
  18 C :   -0.027660
  19 H :    0.020364
  20 C :   -0.031143
  21 H :    0.036060
  22 C :   -0.023270
  23 H :    0.042995
  24 H :    0.043285
  25 H :    0.040225
  26 C :   -0.138320
  27 N :   -0.188083
  28 N :   -0.188082
Sum of atomic charges:   -0.0000000

LOEWDIN ATOMIC CHARGES
----------------------
   0 C :   -0.016027
   1 C :   -0.016027
   2 H :    0.048116
   3 H :    0.048116
   4 C :    0.022667
   5 C :   -0.036396
   6 C :   -0.045520
   7 C :   -0.025345
   8 H :    0.036778
   9 C :   -0.024315
  10 H :    0.043975
  11 C :   -0.040263
  12 H :    0.042679
  13 H :    0.043063
  14 H :    0.040794
  15 C :    0.022667
  16 C :   -0.036396
  17 C :   -0.045520
  18 C :   -0.025345
  19 H :    0.036778
  20 C :   -0.024315
  21 H :    0.043974
  22 C :   -0.040263
  23 H :    0.042679
  24 H :    0.043064
  25 H :    0.040794
  26 C :   -0.259760
  27 N :    0.039673
  28 N :    0.039673

  Mayer bond orders larger than 0.100000
B(  0-C ,  1-C ) :   1.6657 B(  0-C ,  2-H ) :   0.9817 B(  0-C , 27-N ) :   1.0920
B(  1-C ,  3-H ) :   0.9817 B(  1-C , 28-N ) :   1.0920 B(  4-C ,  5-C ) :   1.3980
B(  4-C ,  6-C ) :   1.3886 B(  4-C , 27-N ) :   0.9431 B(  5-C ,  7-C ) :   1.3865
B(  5-C ,  8-H ) :   0.9946 B(  6-C ,  9-C ) :   1.3896 B(  6-C , 10-H ) :   0.9961
B(  7-C , 11-C ) :   1.3824 B(  7-C , 12-H ) :   0.9900 B(  9-C , 11-C ) :   1.3964
B(  9-C , 13-H ) :   0.9896 B( 11-C , 14-H ) :   0.9955 B( 15-C , 16-C ) :   1.3980
B( 15-C , 17-C ) :   1.3886 B( 15-C , 28-N ) :   0.9431 B( 16-C , 18-C ) :   1.3865
B( 16-C , 19-H ) :   0.9946 B( 17-C , 20-C ) :   1.3896 B( 17-C , 21-H ) :   0.9961
B( 18-C , 22-C ) :   1.3824 B( 18-C , 23-H ) :   0.9900 B( 20-C , 22-C ) :   1.3964
B( 20-C , 24-H ) :   0.9896 B( 22-C , 25-H ) :   0.9955 B( 26-C , 27-N ) :   1.2200
B( 26-C , 28-N ) :   1.2200

Dispersion correction           -0.005801830
FINAL SINGLE POINT ENERGY      -687.626185283412

DIPOLE MOMENT
-------------
                                X             Y             Z
Electronic contribution:     -0.00000      -0.00000      -1.40315
Nuclear contribution   :      0.00000      -0.00000      -0.04940
                        -----------------------------------------
Total Dipole Moment    :      0.00000      -0.00000      -1.45255
                        -----------------------------------------
Magnitude (a.u.)       :      1.45255
Magnitude (Debye)      :      3.69209

Dispersion correction in the Hessian             ... Starting D4

VIBRATIONAL FREQUENCIES
-----------------------

Scaling factor for frequencies =  1.000000000  (already applied!)

   0:         0.00 cm**-1
   1:         0.00 cm**-1
   2:         0.00 cm**-1
   3:         0.00 cm**-1
   4:         0.00 cm**-1
   5:         0.00 cm**-1
   6:        18.41 cm**-1
   7:        35.40 cm**-1
   8:        75.02 cm**-1
   9:        86.73 cm**-1
  10:       135.49 cm**-1
  11:       179.26 cm**-1
  12:       260.58 cm**-1
  13:       293.83 cm**-1
  14:       311.70 cm**-1
  15:       420.24 cm**-1
  16:       425.71 cm**-1
  17:       431.17 cm**-1
  18:       431.22 cm**-1
  19:       492.42 cm**-1
  20:       538.79 cm**-1
  21:       570.07 cm**-1
  22:       628.79 cm**-1
  23:       629.95 cm**-1
  24:       660.70 cm**-1
  25:       662.03 cm**-1
  26:       692.05 cm**-1
  27:       724.07 cm**-1
  28:       724.49 cm**-1
  29:       726.60 cm**-1
  30:       747.17 cm**-1
  31:       802.75 cm**-1
  32:       803.94 cm**-1
  33:       871.74 cm**-1
  34:       871.81 cm**-1
  35:       889.64 cm**-1
  36:       962.67 cm**-1
  37:       962.92 cm**-1
  38:       967.65 cm**-1
  39:       976.44 cm**-1
  40:      1021.39 cm**-1
  41:      1022.02 cm**-1
  42:      1025.85 cm**-1
  43:      1025.92 cm**-1
  44:      1050.62 cm**-1
  45:      1050.68 cm**-1
  46:      1058.75 cm**-1
  47:      1060.89 cm**-1
  48:      1089.24 cm**-1
  49:      1098.60 cm**-1
  50:      1111.59 cm**-1
  51:      1115.57 cm**-1
  52:      1135.29 cm**-1
  53:      1156.24 cm**-1
  54:      1156.52 cm**-1
  55:      1181.34 cm**-1
  56:      1181.77 cm**-1
  57:      1293.78 cm**-1
  58:      1304.94 cm**-1
  59:      1307.02 cm**-1
  60:      1352.18 cm**-1
  61:      1352.62 cm**-1
  62:      1358.33 cm**-1
  63:      1390.79 cm**-1
  64:      1432.37 cm**-1
  65:      1464.67 cm**-1
  66:      1506.37 cm**-1
  67:      1510.98 cm**-1
  68:      1555.83 cm**-1
  69:      1564.51 cm**-1
  70:      1663.45 cm**-1
  71:      1693.92 cm**-1
  72:      1699.72 cm**-1
  73:      1707.51 cm**-1
  74:      1711.29 cm**-1
  75:      3214.46 cm**-1
  76:      3214.50 cm**-1
  77:      3222.09 cm**-1
  78:      3222.11 cm**-1
  79:      3231.11 cm**-1
  80:      3231.16 cm**-1
  81:      3237.74 cm**-1
  82:      3237.79 cm**-1
  83:      3248.77 cm**-1
  84:      3248.89 cm**-1
  85:      3299.07 cm**-1
  86:      3319.22 cm**-1

IR SPECTRUM
-----------

 Mode   freq       eps      Int      T**2         TX        TY        TZ
       cm**-1   L/(mol*cm) km/mol    a.u.
----------------------------------------------------------------------------
  6:     18.41   0.000002    0.01  0.000035  ( 0.000001 -0.000001  0.005913)
  7:     35.40   0.000112    0.56  0.000983  ( 0.007163 -0.030529 -0.000000)
  8:     75.02   0.000082    0.41  0.000340  ( 0.000000  0.000000 -0.018434)
  9:     86.73   0.004247   21.46  0.015282  (-0.113731  0.048444 -0.000000)
 10:    135.49   0.000003    0.02  0.000007  (-0.000000 -0.000000 -0.002668)
 11:    179.26   0.000616    3.11  0.001072  (-0.016103 -0.028507 -0.000000)
 12:    260.58   0.000038    0.19  0.000045  ( 0.000000 -0.000000 -0.006708)
 13:    293.83   0.001655    8.36  0.001757  (-0.021371  0.036062  0.000000)
 14:    311.70   0.000081    0.41  0.000081  (-0.000000 -0.000000  0.009006)
 15:    420.24   0.000003    0.01  0.000002  (-0.000259  0.001380  0.000000)
 16:    425.71   0.000008    0.04  0.000006  (-0.000000 -0.000000  0.002346)
 17:    431.17   0.000005    0.02  0.000004  ( 0.000001 -0.000026  0.001875)
 18:    431.22   0.000144    0.73  0.000104  ( 0.000458 -0.010188 -0.000005)
 19:    492.42   0.001744    8.81  0.001105  (-0.015397  0.029465  0.000000)
 20:    538.79   0.001187    6.00  0.000688  ( 0.000000 -0.000000  0.026222)
 21:    570.07   0.004362   22.04  0.002388  (-0.038795 -0.029712  0.000000)
 22:    628.79   0.000262    1.32  0.000130  ( 0.001714  0.011273  0.000000)
 23:    629.95   0.000212    1.07  0.000105  ( 0.000000  0.000000 -0.010258)
 24:    660.70   0.000919    4.64  0.000434  (-0.011375  0.017451 -0.000001)
 25:    662.03   0.000702    3.55  0.000331  ( 0.000001 -0.000000 -0.018196)
 26:    692.05   0.000540    2.73  0.000243  (-0.000000  0.000000 -0.015598)
 27:    724.07   0.004727   23.89  0.002037  (-0.000036  0.000007  0.045138)
 28:    724.49   0.017444   88.15  0.007514  ( 0.084324 -0.020077  0.000019)
 29:    726.60   0.013760   69.54  0.005910  (-0.038306 -0.066652 -0.000001)
 30:    747.17   0.017583   88.86  0.007344  (-0.085295  0.008267 -0.000000)
 31:    802.75   0.003154   15.94  0.001226  ( 0.000009 -0.000003 -0.035015)
 32:    803.94   0.015583   78.75  0.006049  (-0.073550  0.025281 -0.000004)
 33:    871.74   0.000066    0.33  0.000024  ( 0.000000 -0.000000  0.004868)
 34:    871.81   0.000012    0.06  0.000004  (-0.002067  0.000333  0.000001)
 35:    889.64   0.000041    0.21  0.000014  (-0.000000  0.000000 -0.003788)
 36:    962.67   0.000401    2.02  0.000130  (-0.000001  0.000000  0.011394)
 37:    962.92   0.003744   18.92  0.001213  ( 0.025315 -0.023927  0.000000)
 38:    967.65   0.005264   26.60  0.001698  (-0.008233 -0.040373 -0.000000)
 39:    976.44   0.000481    2.43  0.000154  (-0.000000 -0.000001  0.012394)
 40:   1021.39   0.000079    0.40  0.000024  (-0.001221  0.004762 -0.000000)
 41:   1022.02   0.000055    0.28  0.000017  (-0.000000  0.000000  0.004108)
 42:   1025.85   0.000029    0.14  0.000009  (-0.002882  0.000623  0.000003)
 43:   1025.92   0.000076    0.38  0.000023  (-0.000002  0.000000 -0.004801)
 44:   1050.62   0.000003    0.01  0.000001  ( 0.000003 -0.000004  0.000894)
 45:   1050.68   0.000363    1.84  0.000108  (-0.006070  0.008429  0.000000)
 46:   1058.75   0.000904    4.57  0.000266  ( 0.000000 -0.000000  0.016322)
 47:   1060.89   0.003609   18.24  0.001062  (-0.002500  0.032488  0.000000)
 48:   1089.24   0.000944    4.77  0.000270  ( 0.000000  0.000000 -0.016445)
 49:   1098.60   0.004529   22.89  0.001287  (-0.017925 -0.031069 -0.000000)
 50:   1111.59   0.009016   45.56  0.002531  (-0.000000  0.000000  0.050310)
 51:   1115.57   0.001927    9.74  0.000539  ( 0.012502 -0.019565  0.000000)
 52:   1135.29   0.000769    3.88  0.000211  ( 0.000000 -0.000000  0.014535)
 53:   1156.24   0.000014    0.07  0.000004  (-0.000000  0.000000  0.001936)
 54:   1156.52   0.000043    0.22  0.000012  ( 0.000258  0.003406 -0.000000)
 55:   1181.34   0.000266    1.34  0.000070  ( 0.000001 -0.000001  0.008381)
 56:   1181.77   0.000062    0.31  0.000016  (-0.002924  0.002799  0.000002)
 57:   1293.78   0.009387   47.44  0.002264  ( 0.001088 -0.047571  0.000000)
 58:   1304.94   0.001104    5.58  0.000264  ( 0.000000 -0.000002 -0.016247)
 59:   1307.02   0.008855   44.75  0.002114  (-0.000043 -0.045980  0.000001)
 60:   1352.18   0.000582    2.94  0.000134  ( 0.002494  0.011314  0.000001)
 61:   1352.62   0.000039    0.20  0.000009  ( 0.000000  0.000003 -0.002985)
 62:   1358.33   0.012950   65.44  0.002975  ( 0.002412  0.054492 -0.000000)
 63:   1390.79   0.003277   16.56  0.000735  (-0.000000 -0.000000 -0.027114)
 64:   1432.37   0.000072    0.36  0.000016  (-0.000000  0.000000  0.003947)
 65:   1464.67   0.034944  176.59  0.007445  ( 0.000862  0.086281  0.000000)
 66:   1506.37   0.001545    7.81  0.000320  ( 0.011088 -0.014042  0.000000)
 67:   1510.98   0.001251    6.32  0.000258  ( 0.000000 -0.000000 -0.016073)
 68:   1555.83   0.089723  453.42  0.017996  (-0.000002  0.134150 -0.000000)
 69:   1564.51   0.003685   18.62  0.000735  (-0.000000  0.000001  0.027113)
 70:   1663.45   0.002252   11.38  0.000423  ( 0.000000 -0.000000 -0.020556)
 71:   1693.92   0.001993   10.07  0.000367  ( 0.012324  0.014674  0.000000)
 72:   1699.72   0.000739    3.74  0.000136  ( 0.000000  0.000000 -0.011652)
 73:   1707.51   0.031098  157.16  0.005683  ( 0.001481 -0.075374  0.000000)
 74:   1711.29   0.002537   12.82  0.000463  ( 0.000000 -0.000001 -0.021509)
 75:   3214.46   0.000269    1.36  0.000026  ( 0.000410 -0.005096  0.000001)
 76:   3214.50   0.000049    0.25  0.000005  (-0.000000  0.000002  0.002184)
 77:   3222.09   0.001147    5.80  0.000111  ( 0.007503  0.007405  0.000007)
 78:   3222.11   0.001607    8.12  0.000156  ( 0.000004  0.000004 -0.012476)
 79:   3231.11   0.003060   15.47  0.000296  (-0.003521  0.016828 -0.000021)
 80:   3231.16   0.001697    8.57  0.000164  (-0.000006  0.000028  0.012801)
 81:   3237.74   0.001676    8.47  0.000162  (-0.002953 -0.012362 -0.000002)
 82:   3237.79   0.000047    0.24  0.000005  (-0.000003 -0.000011  0.002124)
 83:   3248.77   0.000039    0.20  0.000004  (-0.001583  0.001125 -0.000000)
 84:   3248.89   0.000000    0.00  0.000000  ( 0.000000 -0.000000  0.000106)
 85:   3299.07   0.004082   20.63  0.000386  ( 0.000245 -0.019647  0.000000)
 86:   3319.22   0.001276    6.45  0.000120  (-0.000000  0.000000 -0.010952)

--------------------------
THERMOCHEMISTRY AT 298.15K
--------------------------

Temperature         ... 298.15 K
Pressure            ... 1.00 atm
Total Mass          ... 220.28 AMU

Throughout the following assumptions are being made:
  (1) The electronic state is orbitally nondegenerate
  (2) There are no thermally accessible electronically excited states
  (3) Hindered rotations indicated by low frequency modes are not
      treated as such but are treated as vibrations and this may
      cause some error
  (4) All equations used are the standard statistical mechanics
      equations for an ideal gas
  (5) All vibrations are strictly harmonic

freq.      18.41  E(vib)   ...       0.57
freq.      35.40  E(vib)   ...       0.54
freq.      75.02  E(vib)   ...       0.49
freq.      86.73  E(vib)   ...       0.48
freq.     135.49  E(vib)   ...       0.42
freq.     179.26  E(vib)   ...       0.37
freq.     260.58  E(vib)   ...       0.30
freq.     293.83  E(vib)   ...       0.27
freq.     311.70  E(vib)   ...       0.25
freq.     420.24  E(vib)   ...       0.18
freq.     425.71  E(vib)   ...       0.18
freq.     431.17  E(vib)   ...       0.18
freq.     431.22  E(vib)   ...       0.18
freq.     492.42  E(vib)   ...       0.14
freq.     538.79  E(vib)   ...       0.12
freq.     570.07  E(vib)   ...       0.11
freq.     628.79  E(vib)   ...       0.09
freq.     629.95  E(vib)   ...       0.09
freq.     660.70  E(vib)   ...       0.08
freq.     662.03  E(vib)   ...       0.08
freq.     692.05  E(vib)   ...       0.07
freq.     724.07  E(vib)   ...       0.06
freq.     724.49  E(vib)   ...       0.06
freq.     726.60  E(vib)   ...       0.06
freq.     747.17  E(vib)   ...       0.06
freq.     802.75  E(vib)   ...       0.05
freq.     803.94  E(vib)   ...       0.05
freq.     871.74  E(vib)   ...       0.04
freq.     871.81  E(vib)   ...       0.04
freq.     889.64  E(vib)   ...       0.04
freq.     962.67  E(vib)   ...       0.03
freq.     962.92  E(vib)   ...       0.03
freq.     967.65  E(vib)   ...       0.03
freq.     976.44  E(vib)   ...       0.03
freq.    1021.39  E(vib)   ...       0.02
freq.    1022.02  E(vib)   ...       0.02
freq.    1025.85  E(vib)   ...       0.02
freq.    1025.92  E(vib)   ...       0.02
freq.    1050.62  E(vib)   ...       0.02
freq.    1050.68  E(vib)   ...       0.02
freq.    1058.75  E(vib)   ...       0.02
freq.    1060.89  E(vib)   ...       0.02
freq.    1089.24  E(vib)   ...       0.02
freq.    1098.60  E(vib)   ...       0.02
freq.    1111.59  E(vib)   ...       0.01
freq.    1115.57  E(vib)   ...       0.01
freq.    1135.29  E(vib)   ...       0.01
freq.    1156.24  E(vib)   ...       0.01
freq.    1156.52  E(vib)   ...       0.01
freq.    1181.34  E(vib)   ...       0.01
freq.    1181.77  E(vib)   ...       0.01
freq.    1293.78  E(vib)   ...       0.01
freq.    1304.94  E(vib)   ...       0.01
freq.    1307.02  E(vib)   ...       0.01
freq.    1352.18  E(vib)   ...       0.01
freq.    1352.62  E(vib)   ...       0.01
freq.    1358.33  E(vib)   ...       0.01
freq.    1390.79  E(vib)   ...       0.00
freq.    1432.37  E(vib)   ...       0.00
freq.    1464.67  E(vib)   ...       0.00
freq.    1506.37  E(vib)   ...       0.00
freq.    1510.98  E(vib)   ...       0.00
freq.    1555.83  E(vib)   ...       0.00
freq.    1564.51  E(vib)   ...       0.00
freq.    1663.45  E(vib)   ...       0.00
freq.    1693.92  E(vib)   ...       0.00
freq.    1699.72  E(vib)   ...       0.00
freq.    1707.51  E(vib)   ...       0.00
freq.    1711.29  E(vib)   ...       0.00
freq.    3214.46  E(vib)   ...       0.00
freq.    3214.50  E(vib)   ...       0.00
freq.    3222.09  E(vib)   ...       0.00
freq.    3222.11  E(vib)   ...       0.00
freq.    3231.11  E(vib)   ...       0.00
freq.    3231.16  E(vib)   ...       0.00
freq.    3237.74  E(vib)   ...       0.00
freq.    3237.79  E(vib)   ...       0.00
freq.    3248.77  E(vib)   ...       0.00
freq.    3248.89  E(vib)   ...       0.00
freq.    3299.07  E(vib)   ...       0.00
freq.    3319.22  E(vib)   ...       0.00

------------
INNER ENERGY
------------

The inner energy is: U= E(el) + E(ZPE) + E(vib) + E(rot) + E(trans)
    E(el)   - is the total energy from the electronic structure calculation
              = E(kin-el) + E(nuc-el) + E(el-el) + E(nuc-nuc)
    E(ZPE)  - the the zero temperature vibrational energy from the frequency calculation
    E(vib)  - the the finite temperature correction to E(ZPE) due to population
              of excited vibrational states
    E(rot)  - is the rotational thermal energy
    E(trans)- is the translational thermal energy

Summary of contributions to the inner energy U:
Electronic energy                ...   -687.62618528 Eh
Zero point energy                ...      0.23545078 Eh     147.75 kcal/mol
Thermal vibrational correction   ...      0.00974422 Eh       6.11 kcal/mol
Thermal rotational correction    ...      0.00141627 Eh       0.89 kcal/mol
Thermal translational correction ...      0.00141627 Eh       0.89 kcal/mol
-----------------------------------------------------------------------
Total thermal energy                   -687.37815774 Eh

Summary of corrections to the electronic energy:
(perhaps to be used in another calculation)
Total thermal correction                  0.01257677 Eh       7.89 kcal/mol
Non-thermal (ZPE) correction              0.23545078 Eh     147.75 kcal/mol
-----------------------------------------------------------------------
Total correction                          0.24802755 Eh     155.64 kcal/mol

--------
ENTHALPY
--------

The enthalpy is H = U + kB*T
                kB is Boltzmann's constant
Total free energy                 ...   -687.37815774 Eh
Thermal Enthalpy correction       ...      0.00094421 Eh       0.59 kcal/mol
-----------------------------------------------------------------------
Total Enthalpy                    ...   -687.37721353 Eh

Note: Rotational entropy computed according to Herzberg
Infrared and Raman Spectra, Chapter V,1, Van Nostrand Reinhold, 1945
Point Group:  C2, Symmetry Number:   2
Rotational constants in cm-1:     0.054882     0.006881     0.006302

Vibrational entropy computed according to the QRRHO of S. Grimme
Chem.Eur.J. 2012 18 9955

-------
ENTROPY
-------

The entropy contributions are T*S = T*(S(el)+S(vib)+S(rot)+S(trans))
     S(el)   - electronic entropy
     S(vib)  - vibrational entropy
     S(rot)  - rotational entropy
     S(trans)- translational entropy
The entropies will be listed as multiplied by the temperature to get

                             ****ORCA TERMINATED NORMALLY****
TOTAL RUN TIME: 0 days 0 hours 24 minutes 53 seconds 416 msec
