                         Program Version 5.0.4 -  RELEASE  -
|  1> # ORCAForces - ../2023_04/pKa_prediction/extra_carbenes/Gas/11+_Gas.inp
|  2> # Basic Mode
|  3> #
|  4> ! Opt FREQ wB97X D4 Def2-SVP SlowConv TightSCF DEFGRID2 Def2/J RIJCOSX
|  5>
|  6> %maxcore 4500
|  7>
|  8> %PAL NPROCS 4 END
|  9>
| 10> %geom
| 11> Maxiter 150
| 12> END
| 13>
| 14> * xyzfile 1 1 11+.xyz
| 15>
| 16>                          ****END OF INPUT****
 Total Charge           Charge          ....    1
 Multiplicity           Mult            ....    1
 Number of Electrons    NEL             ....   56
Dispersion correction           -0.002056269
FINAL SINGLE POINT ENERGY      -307.329457296174
Dispersion correction            ... Starting D4
Dispersion correction           -0.002062956
FINAL SINGLE POINT ENERGY      -307.330318012999
Dispersion correction            ... Starting D4
Dispersion correction           -0.002061277
FINAL SINGLE POINT ENERGY      -307.330366078102
Dispersion correction            ... Starting D4
FINAL SINGLE POINT ENERGY      -307.330404941475
Dispersion correction           -0.002062854
FINAL SINGLE POINT ENERGY      -307.330414595061
Dispersion correction            ... Starting D4
Dispersion correction           -0.002063106
FINAL SINGLE POINT ENERGY      -307.330418824402
Dispersion correction            ... Starting D4
                    ***********************HURRAY********************

CARTESIAN COORDINATES (ANGSTROEM)
---------------------------------
  C      0.000000    0.000000    0.655468
  N     -0.007826    1.196879    0.104636
  N      0.007825   -1.196879    0.104636
  C      0.218691    1.505493   -1.307581
  C     -0.218691   -1.505493   -1.307581
  H      0.736175    2.472480   -1.359173
  H     -0.736177   -2.472479   -1.359173
  H      0.865647    0.756972   -1.776256
  H     -0.865645   -0.756971   -1.776256
  H     -0.727887    1.591021   -1.862239
  H      0.727886   -1.591024   -1.862239
  C     -0.218792    2.367120    0.961630
  C      0.218792   -2.367119    0.961630
  H     -0.371501    2.058622    2.003075
  H      0.371500   -2.058623    2.003076
  H      0.654223    3.033599    0.906286
  H     -0.654222   -3.033600    0.906285
  H     -1.110796    2.915991    0.626018
  H      1.110797   -2.915990    0.626019
  H      0.000000    0.000000    1.751206

 Multiplicity           Mult            ....    1
 Number of Electrons    NEL             ....   56
 Basis Dimension        Dim             ....  163

ORBITAL ENERGIES
----------------

  NO   OCC          E(Eh)            E(eV)
   0   2.0000     -14.644633      -398.5007
   1   2.0000     -14.644633      -398.5007
   2   2.0000     -10.561103      -287.3822
   3   2.0000     -10.475278      -285.0468
   4   2.0000     -10.475266      -285.0465
   5   2.0000     -10.471659      -284.9483
   6   2.0000     -10.471644      -284.9479
   7   2.0000      -1.311542       -35.6889
   8   2.0000      -1.247036       -33.9336
   9   2.0000      -1.055325       -28.7169
  10   2.0000      -1.028801       -27.9951
  11   2.0000      -1.012790       -27.5594
  12   2.0000      -0.964198       -26.2372
  13   2.0000      -0.868242       -23.6261
  14   2.0000      -0.812825       -22.1181
  15   2.0000      -0.808620       -22.0037
  16   2.0000      -0.784164       -21.3382
  17   2.0000      -0.745190       -20.2776
  18   2.0000      -0.734942       -19.9988
  19   2.0000      -0.705909       -19.2088
  20   2.0000      -0.691646       -18.8206
  21   2.0000      -0.682922       -18.5833
  22   2.0000      -0.673354       -18.3229
  23   2.0000      -0.672267       -18.2933
  24   2.0000      -0.663962       -18.0673
  25   2.0000      -0.642155       -17.4739
  26   2.0000      -0.627966       -17.0878
  27   2.0000      -0.515104       -14.0167
  28   0.0000      -0.099715        -2.7134
  29   0.0000      -0.022860        -0.6220
  30   0.0000       0.007278         0.1981
  31   0.0000       0.016360         0.4452
  32   0.0000       0.033819         0.9203

MULLIKEN ATOMIC CHARGES
-----------------------
   0 C :    0.220616
   1 N :   -0.302412
   2 N :   -0.302411
   3 C :    0.044416
   4 C :    0.044415
   5 H :    0.090289
   6 H :    0.090289
   7 H :    0.081571
   8 H :    0.081571
   9 H :    0.103244
  10 H :    0.103244
  11 C :    0.051981
  12 C :    0.051981
  13 H :    0.081028
  14 H :    0.081028
  15 H :    0.097299
  16 H :    0.097299
  17 H :    0.097084
  18 H :    0.097084
  19 H :    0.090383
Sum of atomic charges:    1.0000000

LOEWDIN ATOMIC CHARGES
----------------------
   0 C :    0.160599
   1 N :    0.011191
   2 N :    0.011191
   3 C :    0.041261
   4 C :    0.041261
   5 H :    0.053238
   6 H :    0.053238
   7 H :    0.044205
   8 H :    0.044205
   9 H :    0.047677
  10 H :    0.047677
  11 C :    0.051765
  12 C :    0.051765
  13 H :    0.044960
  14 H :    0.044960
  15 H :    0.047978
  16 H :    0.047978
  17 H :    0.050091
  18 H :    0.050091
  19 H :    0.054667

  Mayer bond orders larger than 0.100000
B(  0-C ,  1-N ) :   1.4470 B(  0-C ,  2-N ) :   1.4470 B(  0-C , 19-H ) :   0.9593
B(  1-N ,  3-C ) :   0.9082 B(  1-N , 11-C ) :   0.9079 B(  2-N ,  4-C ) :   0.9081
B(  2-N , 12-C ) :   0.9079 B(  3-C ,  5-H ) :   0.9661 B(  3-C ,  7-H ) :   0.9701
B(  3-C ,  9-H ) :   0.9695 B(  4-C ,  6-H ) :   0.9661 B(  4-C ,  8-H ) :   0.9701
B(  4-C , 10-H ) :   0.9695 B( 11-C , 13-H ) :   0.9698 B( 11-C , 15-H ) :   0.9720
B( 11-C , 17-H ) :   0.9714 B( 12-C , 14-H ) :   0.9698 B( 12-C , 16-H ) :   0.9720
B( 12-C , 18-H ) :   0.9714

Dispersion correction           -0.002063191
FINAL SINGLE POINT ENERGY      -307.330421197365

DIPOLE MOMENT
-------------
                                X             Y             Z
Electronic contribution:     -0.00000       0.00000       1.38162
Nuclear contribution   :      0.00000      -0.00000      -1.25785
                        -----------------------------------------
Total Dipole Moment    :     -0.00000      -0.00000       0.12378
                        -----------------------------------------
Magnitude (a.u.)       :      0.12378
Magnitude (Debye)      :      0.31462

Dispersion correction in the Hessian             ... Starting D4

VIBRATIONAL FREQUENCIES
-----------------------

Scaling factor for frequencies =  1.000000000  (already applied!)

   0:         0.00 cm**-1
   1:         0.00 cm**-1
   2:         0.00 cm**-1
   3:         0.00 cm**-1
   4:         0.00 cm**-1
   5:         0.00 cm**-1
   6:        62.76 cm**-1
   7:       139.99 cm**-1
   8:       143.35 cm**-1
   9:       154.46 cm**-1
  10:       164.78 cm**-1
  11:       220.59 cm**-1
  12:       275.31 cm**-1
  13:       321.85 cm**-1
  14:       349.74 cm**-1
  15:       407.72 cm**-1
  16:       448.05 cm**-1
  17:       497.52 cm**-1
  18:       623.01 cm**-1
  19:       890.02 cm**-1
  20:       907.99 cm**-1
  21:      1010.36 cm**-1
  22:      1082.67 cm**-1
  23:      1083.15 cm**-1
  24:      1107.36 cm**-1
  25:      1121.75 cm**-1
  26:      1123.54 cm**-1
  27:      1164.15 cm**-1
  28:      1165.37 cm**-1
  29:      1187.73 cm**-1
  30:      1237.58 cm**-1
  31:      1336.33 cm**-1
  32:      1435.36 cm**-1
  33:      1444.00 cm**-1
  34:      1446.65 cm**-1
  35:      1451.66 cm**-1
  36:      1456.72 cm**-1
  37:      1462.99 cm**-1
  38:      1466.91 cm**-1
  39:      1471.98 cm**-1
  40:      1475.43 cm**-1
  41:      1478.96 cm**-1
  42:      1488.80 cm**-1
  43:      1492.76 cm**-1
  44:      1504.39 cm**-1
  45:      1572.21 cm**-1
  46:      1814.99 cm**-1
  47:      3084.31 cm**-1
  48:      3084.57 cm**-1
  49:      3090.25 cm**-1
  50:      3094.48 cm**-1
  51:      3189.68 cm**-1
  52:      3189.98 cm**-1
  53:      3193.57 cm**-1
  54:      3195.36 cm**-1
  55:      3215.38 cm**-1
  56:      3218.10 cm**-1
  57:      3225.44 cm**-1
  58:      3237.00 cm**-1
  59:      3239.61 cm**-1

IR SPECTRUM
-----------

 Mode   freq       eps      Int      T**2         TX        TY        TZ
       cm**-1   L/(mol*cm) km/mol    a.u.
----------------------------------------------------------------------------
  6:     62.76   0.000005    0.03  0.000027  (-0.000000 -0.000000 -0.005168)
  7:    139.99   0.000063    0.32  0.000141  ( 0.007969  0.008821 -0.000000)
  8:    143.35   0.000295    1.49  0.000643  (-0.022614 -0.011480  0.000000)
  9:    154.46   0.000003    0.02  0.000007  (-0.000003 -0.000001 -0.002597)
 10:    164.78   0.000000    0.00  0.000000  ( 0.000001  0.000001  0.000514)
 11:    220.59   0.000454    2.29  0.000642  (-0.024612 -0.006038  0.000000)
 12:    275.31   0.000004    0.02  0.000005  (-0.000000  0.000000 -0.002188)
 13:    321.85   0.000116    0.59  0.000112  ( 0.000000 -0.000000  0.010600)
 14:    349.74   0.000844    4.27  0.000753  (-0.026057  0.008613  0.000000)
 15:    407.72   0.000005    0.02  0.000004  (-0.000000  0.000000 -0.001879)
 16:    448.05   0.003194   16.14  0.002225  ( 0.042125 -0.021215 -0.000000)
 17:    497.52   0.001981   10.01  0.001243  ( 0.034197 -0.008566 -0.000000)
 18:    623.01   0.000204    1.03  0.000102  ( 0.000000 -0.000000  0.010116)
 19:    890.02   0.000999    5.05  0.000350  ( 0.000000 -0.000000 -0.018719)
 20:    907.99   0.003415   17.26  0.001174  ( 0.000529 -0.034254  0.000000)
 21:   1010.36   0.001579    7.98  0.000488  ( 0.008762 -0.020274  0.000000)
 22:   1082.67   0.003323   16.79  0.000958  ( 0.000001 -0.000002  0.030949)
 23:   1083.15   0.000993    5.02  0.000286  (-0.005188  0.016100  0.000004)
 24:   1107.36   0.000541    2.73  0.000152  (-0.000000  0.000000 -0.012348)
 25:   1121.75   0.000885    4.47  0.000246  (-0.009621  0.012395 -0.000000)
 26:   1123.54   0.000035    0.18  0.000010  ( 0.000000 -0.000000 -0.003120)
 27:   1164.15   0.001649    8.33  0.000442  ( 0.006204  0.020086  0.000000)
 28:   1165.37   0.000043    0.22  0.000012  (-0.000000 -0.000000  0.003394)
 29:   1187.73   0.012241   61.86  0.003216  ( 0.003043 -0.056630 -0.000000)
 30:   1237.58   0.000689    3.48  0.000174  ( 0.005534 -0.011965  0.000000)
 31:   1336.33   0.006458   32.64  0.001508  (-0.000000  0.000000 -0.038835)
 32:   1435.36   0.001961    9.91  0.000426  (-0.003575  0.020334  0.000000)
 33:   1444.00   0.000495    2.50  0.000107  (-0.000000  0.000000  0.010342)
 34:   1446.65   0.001987   10.04  0.000429  ( 0.009919  0.018173  0.000000)
 35:   1451.66   0.000106    0.53  0.000023  (-0.004743  0.000485 -0.000000)
 36:   1456.72   0.000348    1.76  0.000075  (-0.000000  0.000000  0.008632)
 37:   1462.99   0.011801   59.64  0.002517  (-0.003398 -0.050056  0.000000)
 38:   1466.91   0.010145   51.27  0.002158  ( 0.046454  0.000374 -0.000000)
 39:   1471.98   0.000090    0.45  0.000019  (-0.000000  0.000000 -0.004367)
 40:   1475.43   0.000789    3.99  0.000167  (-0.000000  0.000000 -0.012922)
 41:   1478.96   0.001824    9.22  0.000385  ( 0.000000 -0.000000  0.019620)
 42:   1488.80   0.004079   20.61  0.000855  ( 0.029209 -0.001324 -0.000000)
 43:   1492.76   0.001067    5.39  0.000223  (-0.000001 -0.000000 -0.014938)
 44:   1504.39   0.007349   37.14  0.001524  (-0.007644  0.038288 -0.000000)
 45:   1572.21   0.006280   31.74  0.001247  (-0.000000  0.000000  0.035307)
 46:   1814.99   0.146406  739.88  0.025173  (-0.001220  0.158654  0.000000)
 47:   3084.31   0.002467   12.47  0.000250  ( 0.001047 -0.015764  0.000001)
 48:   3084.57   0.000759    3.84  0.000077  ( 0.000000 -0.000002 -0.008763)
 49:   3090.25   0.000526    2.66  0.000053  (-0.000325  0.007279 -0.000000)
 50:   3094.48   0.001403    7.09  0.000142  (-0.000000  0.000000  0.011896)
 51:   3189.68   0.000003    0.02  0.000000  (-0.000002 -0.000001  0.000562)
 52:   3189.98   0.000442    2.23  0.000043  (-0.006107 -0.002430 -0.000000)
 53:   3193.57   0.000001    0.00  0.000000  (-0.000000 -0.000000  0.000288)
 54:   3195.36   0.000074    0.37  0.000007  ( 0.002604  0.000638 -0.000000)
 55:   3215.38   0.000276    1.40  0.000027  (-0.000000  0.000000 -0.005176)
 56:   3218.10   0.000210    1.06  0.000020  (-0.001256 -0.004332 -0.000000)
 57:   3225.44   0.000000    0.00  0.000000  (-0.000000  0.000000 -0.000046)
 58:   3237.00   0.000189    0.95  0.000018  ( 0.003800 -0.001940  0.000000)
 59:   3239.61   0.000067    0.34  0.000006  ( 0.000000 -0.000000  0.002533)

--------------------------
THERMOCHEMISTRY AT 298.15K
--------------------------

Temperature         ... 298.15 K
Pressure            ... 1.00 atm
Total Mass          ... 101.17 AMU

Throughout the following assumptions are being made:
  (1) The electronic state is orbitally nondegenerate
  (2) There are no thermally accessible electronically excited states
  (3) Hindered rotations indicated by low frequency modes are not
      treated as such but are treated as vibrations and this may
      cause some error
  (4) All equations used are the standard statistical mechanics
      equations for an ideal gas
  (5) All vibrations are strictly harmonic

freq.      62.76  E(vib)   ...       0.51
freq.     139.99  E(vib)   ...       0.41
freq.     143.35  E(vib)   ...       0.41
freq.     154.46  E(vib)   ...       0.40
freq.     164.78  E(vib)   ...       0.39
freq.     220.59  E(vib)   ...       0.33
freq.     275.31  E(vib)   ...       0.28
freq.     321.85  E(vib)   ...       0.25
freq.     349.74  E(vib)   ...       0.23
freq.     407.72  E(vib)   ...       0.19
freq.     448.05  E(vib)   ...       0.17
freq.     497.52  E(vib)   ...       0.14
freq.     623.01  E(vib)   ...       0.09
freq.     890.02  E(vib)   ...       0.04
freq.     907.99  E(vib)   ...       0.03
freq.    1010.36  E(vib)   ...       0.02
freq.    1082.67  E(vib)   ...       0.02
freq.    1083.15  E(vib)   ...       0.02
freq.    1107.36  E(vib)   ...       0.02
freq.    1121.75  E(vib)   ...       0.01
freq.    1123.54  E(vib)   ...       0.01
freq.    1164.15  E(vib)   ...       0.01
freq.    1165.37  E(vib)   ...       0.01
freq.    1187.73  E(vib)   ...       0.01
freq.    1237.58  E(vib)   ...       0.01
freq.    1336.33  E(vib)   ...       0.01
freq.    1435.36  E(vib)   ...       0.00
freq.    1444.00  E(vib)   ...       0.00
freq.    1446.65  E(vib)   ...       0.00
freq.    1451.66  E(vib)   ...       0.00
freq.    1456.72  E(vib)   ...       0.00
freq.    1462.99  E(vib)   ...       0.00
freq.    1466.91  E(vib)   ...       0.00
freq.    1471.98  E(vib)   ...       0.00
freq.    1475.43  E(vib)   ...       0.00
freq.    1478.96  E(vib)   ...       0.00
freq.    1488.80  E(vib)   ...       0.00
freq.    1492.76  E(vib)   ...       0.00
freq.    1504.39  E(vib)   ...       0.00
freq.    1572.21  E(vib)   ...       0.00
freq.    1814.99  E(vib)   ...       0.00
freq.    3084.31  E(vib)   ...       0.00
freq.    3084.57  E(vib)   ...       0.00
freq.    3090.25  E(vib)   ...       0.00
freq.    3094.48  E(vib)   ...       0.00
freq.    3189.68  E(vib)   ...       0.00
freq.    3189.98  E(vib)   ...       0.00
freq.    3193.57  E(vib)   ...       0.00
freq.    3195.36  E(vib)   ...       0.00
freq.    3215.38  E(vib)   ...       0.00
freq.    3218.10  E(vib)   ...       0.00
freq.    3225.44  E(vib)   ...       0.00
freq.    3237.00  E(vib)   ...       0.00
freq.    3239.61  E(vib)   ...       0.00

------------
INNER ENERGY
------------

The inner energy is: U= E(el) + E(ZPE) + E(vib) + E(rot) + E(trans)
    E(el)   - is the total energy from the electronic structure calculation
              = E(kin-el) + E(nuc-el) + E(el-el) + E(nuc-nuc)
    E(ZPE)  - the the zero temperature vibrational energy from the frequency calculation
    E(vib)  - the the finite temperature correction to E(ZPE) due to population
              of excited vibrational states
    E(rot)  - is the rotational thermal energy
    E(trans)- is the translational thermal energy

Summary of contributions to the inner energy U:
Electronic energy                ...   -307.33042120 Eh
Zero point energy                ...      0.18669273 Eh     117.15 kcal/mol
Thermal vibrational correction   ...      0.00648115 Eh       4.07 kcal/mol
Thermal rotational correction    ...      0.00141627 Eh       0.89 kcal/mol
Thermal translational correction ...      0.00141627 Eh       0.89 kcal/mol
-----------------------------------------------------------------------
Total thermal energy                   -307.13441477 Eh

Summary of corrections to the electronic energy:
(perhaps to be used in another calculation)
Total thermal correction                  0.00931369 Eh       5.84 kcal/mol
Non-thermal (ZPE) correction              0.18669273 Eh     117.15 kcal/mol
-----------------------------------------------------------------------
Total correction                          0.19600642 Eh     123.00 kcal/mol

--------
ENTHALPY
--------

The enthalpy is H = U + kB*T
                kB is Boltzmann's constant
Total free energy                 ...   -307.13441477 Eh
Thermal Enthalpy correction       ...      0.00094421 Eh       0.59 kcal/mol
-----------------------------------------------------------------------
Total Enthalpy                    ...   -307.13347056 Eh

Note: Rotational entropy computed according to Herzberg
Infrared and Raman Spectra, Chapter V,1, Van Nostrand Reinhold, 1945
Point Group:  C2, Symmetry Number:   2
Rotational constants in cm-1:     0.154796     0.055894     0.043051

Vibrational entropy computed according to the QRRHO of S. Grimme
Chem.Eur.J. 2012 18 9955

-------
ENTROPY
-------

The entropy contributions are T*S = T*(S(el)+S(vib)+S(rot)+S(trans))
     S(el)   - electronic entropy
     S(vib)  - vibrational entropy
     S(rot)  - rotational entropy
     S(trans)- translational entropy
The entropies will be listed as multiplied by the temperature to get
units of energy

Electronic entropy                ...      0.00000000 Eh      0.00 kcal/mol
Vibrational entropy               ...      0.01133782 Eh      7.11 kcal/mol
Rotational entropy                ...      0.01258366 Eh      7.90 kcal/mol
Translational entropy             ...      0.01888776 Eh     11.85 kcal/mol
-----------------------------------------------------------------------
Final entropy term                ...      0.04280924 Eh     26.86 kcal/mol

In case the symmetry of your molecule has not been determined correctly
or in case you have a reason to use a different symmetry number we print
out the resulting rotational entropy values for sn=1,12 :
 --------------------------------------------------------
|  sn= 1 | S(rot)=       0.01323811 Eh      8.31 kcal/mol|
|  sn= 2 | S(rot)=       0.01258366 Eh      7.90 kcal/mol|
|  sn= 3 | S(rot)=       0.01220082 Eh      7.66 kcal/mol|
|  sn= 4 | S(rot)=       0.01192920 Eh      7.49 kcal/mol|
|  sn= 5 | S(rot)=       0.01171851 Eh      7.35 kcal/mol|
|  sn= 6 | S(rot)=       0.01154637 Eh      7.25 kcal/mol|
|  sn= 7 | S(rot)=       0.01140082 Eh      7.15 kcal/mol|
|  sn= 8 | S(rot)=       0.01127474 Eh      7.07 kcal/mol|
|  sn= 9 | S(rot)=       0.01116353 Eh      7.01 kcal/mol|
|  sn=10 | S(rot)=       0.01106405 Eh      6.94 kcal/mol|
|  sn=11 | S(rot)=       0.01097406 Eh      6.89 kcal/mol|
|  sn=12 | S(rot)=       0.01089191 Eh      6.83 kcal/mol|
 --------------------------------------------------------

                             ****ORCA TERMINATED NORMALLY****
TOTAL RUN TIME: 0 days 0 hours 14 minutes 43 seconds 747 msec
