                         Program Version 5.0.3 -  RELEASE  -
|  1> ! Opt FREQ wB97X D4 Def2-SVP SlowConv TightSCF DEFGRID2 Def2/J RIJCOSX
|  2> %MAXCORE 4000
|  3> %scf MaxIter 20000 end
|  4> %geom
|  5> MaxIter 500
|  6> end
|  7> %PAL NPROCS 8 END
|  8>
|  9> * xyz 1 1
| 10> C 0.17306 0.53283 -1.43487
| 11> C 0.21837 -0.84847 -1.55443
| 12> N 0.20011 0.83221 -0.12124
| 13> N 0.23266 -1.34682 -0.26859
| 14> C 0.18501 -0.3087 0.635
| 15> H 0.13802 1.3346 -2.13722
| 16> H 0.17037 -1.51949 -2.37979
| 17> C 0.06994 2.10507 0.38714
| 18> C 0.13467 -2.76158 0.07293
| 19> H -0.88471 2.6065 0.1256
| 20> H 0.8716 2.73997 0.00987
| 21> H 0.1594 2.1733 1.47256
| 22> H 0.22285 -0.3058 1.73028
| 23> H -0.22843 -3.20397 -0.85019
| 24> H -0.63468 -2.86443 0.83721
| 25> H 1.07839 -3.20141 0.34695
| 26> **                         ****END OF INPUT****
 Total Charge           Charge          ....    1
 Multiplicity           Mult            ....    1
 Number of Electrons    NEL             ....   52
Dispersion correction           -0.001656230
FINAL SINGLE POINT ENERGY      -304.914390471650
Dispersion correction            ... Starting D4
Dispersion correction           -0.001651296
FINAL SINGLE POINT ENERGY      -304.927668915995
Dispersion correction            ... Starting D4
Dispersion correction           -0.001649528
FINAL SINGLE POINT ENERGY      -304.930694882189
Dispersion correction            ... Starting D4
FINAL SINGLE POINT ENERGY      -304.931303811965
FINAL SINGLE POINT ENERGY      -304.931419775821
FINAL SINGLE POINT ENERGY      -304.931449967559
FINAL SINGLE POINT ENERGY      -304.931463400960
FINAL SINGLE POINT ENERGY      -304.931479474508
FINAL SINGLE POINT ENERGY      -304.931535547000
FINAL SINGLE POINT ENERGY      -304.931617585704
FINAL SINGLE POINT ENERGY      -304.931722854955
FINAL SINGLE POINT ENERGY      -304.931852031164
FINAL SINGLE POINT ENERGY      -304.931938292026
FINAL SINGLE POINT ENERGY      -304.931965867139
Dispersion correction           -0.001649457
FINAL SINGLE POINT ENERGY      -304.931973623170
Dispersion correction            ... Starting D4
Dispersion correction           -0.001649415
FINAL SINGLE POINT ENERGY      -304.931975498466
Dispersion correction            ... Starting D4
                    ***********************HURRAY********************

CARTESIAN COORDINATES (ANGSTROEM)
---------------------------------
  C      0.254477    0.524793   -1.461813
  C      0.276490   -0.832633   -1.560802
  N      0.117299    0.829706   -0.125266
  N      0.152704   -1.332604   -0.283113
  C      0.058299   -0.308821    0.562724
  H      0.327816    1.294473   -2.227973
  H      0.369283   -1.480433   -2.430533
  C      0.042224    2.178217    0.435310
  C      0.126924   -2.750062    0.075278
  H     -0.830550    2.699093    0.020936
  H      0.959202    2.729883    0.191495
  H     -0.059636    2.108577    1.524657
  H     -0.049883   -0.389858    1.644330
  H     -0.743909   -3.231146   -0.388604
  H      0.055443   -2.843701    1.165316
  H      1.050447   -3.231674   -0.270729

 Multiplicity           Mult            ....    1
 Number of Electrons    NEL             ....   52
 Basis Dimension        Dim             ....  143

ORBITAL ENERGIES
----------------

  NO   OCC          E(Eh)            E(eV)
   0   2.0000     -14.676975      -399.3808
   1   2.0000     -14.676958      -399.3803
   2   2.0000     -10.549088      -287.0553
   3   2.0000     -10.494878      -285.5801
   4   2.0000     -10.494300      -285.5644
   5   2.0000     -10.486547      -285.3535
   6   2.0000     -10.486491      -285.3519
   7   2.0000      -1.378799       -37.5190
   8   2.0000      -1.255162       -34.1547
   9   2.0000      -1.098304       -29.8864
  10   2.0000      -1.062058       -28.9001
  11   2.0000      -0.996716       -27.1220
  12   2.0000      -0.933926       -25.4134
  13   2.0000      -0.901460       -24.5300
  14   2.0000      -0.843900       -22.9637
  15   2.0000      -0.801231       -21.8026
  16   2.0000      -0.760133       -20.6843
  17   2.0000      -0.755024       -20.5452
  18   2.0000      -0.741481       -20.1767
  19   2.0000      -0.737982       -20.0815
  20   2.0000      -0.728081       -19.8121
  21   2.0000      -0.682397       -18.5690
  22   2.0000      -0.678394       -18.4600
  23   2.0000      -0.675079       -18.3698
  24   2.0000      -0.578922       -15.7533
  25   2.0000      -0.536462       -14.5979
  26   0.0000      -0.100157        -2.7254
  27   0.0000      -0.066162        -1.8004
  28   0.0000      -0.007747        -0.2108
  29   0.0000       0.005284         0.1438
  30   0.0000       0.021298         0.5795

MULLIKEN ATOMIC CHARGES
-----------------------
   0 C :    0.078041
   1 C :    0.078216
   2 N :   -0.224135
   3 N :   -0.223900
   4 C :    0.208835
   5 H :    0.107297
   6 H :    0.107115
   7 C :    0.059537
   8 C :    0.059371
   9 H :    0.110435
  10 H :    0.110357
  11 H :    0.091556
  12 H :    0.124785
  13 H :    0.110938
  14 H :    0.091725
  15 H :    0.109826
Sum of atomic charges:    1.0000000

LOEWDIN ATOMIC CHARGES
----------------------
   0 C :    0.029877
   1 C :    0.029817
   2 N :    0.091137
   3 N :    0.091232
   4 C :    0.113661
   5 H :    0.063295
   6 H :    0.063254
   7 C :    0.057243
   8 C :    0.057218
   9 H :    0.058160
  10 H :    0.058211
  11 H :    0.054083
  12 H :    0.062305
  13 H :    0.058176
  14 H :    0.054128
  15 H :    0.058202

  Mayer bond orders larger than 0.100000
B(  0-C ,  1-C ) :   1.6178 B(  0-C ,  2-N ) :   1.1755 B(  0-C ,  5-H ) :   0.9823
B(  1-C ,  3-N ) :   1.1755 B(  1-C ,  6-H ) :   0.9823 B(  2-N ,  4-C ) :   1.3589
B(  2-N ,  7-C ) :   0.8860 B(  3-N ,  4-C ) :   1.3592 B(  3-N ,  8-C ) :   0.8861
B(  4-C , 12-H ) :   0.9686 B(  7-C ,  9-H ) :   0.9724 B(  7-C , 10-H ) :   0.9723
B(  7-C , 11-H ) :   0.9727 B(  8-C , 13-H ) :   0.9723 B(  8-C , 14-H ) :   0.9727
B(  8-C , 15-H ) :   0.9723

Dispersion correction           -0.001649387
FINAL SINGLE POINT ENERGY      -304.931975501216

DIPOLE MOMENT
-------------
                                X             Y             Z
Electronic contribution:      0.16451       0.11346      -1.50762
Nuclear contribution   :     -0.20353      -0.14138       1.87756
                        -----------------------------------------
Total Dipole Moment    :     -0.03902      -0.02792       0.36994
                        -----------------------------------------
Magnitude (a.u.)       :      0.37304
Magnitude (Debye)      :      0.94819

Dispersion correction in the Hessian             ... Starting D4

VIBRATIONAL FREQUENCIES
-----------------------

Scaling factor for frequencies =  1.000000000  (already applied!)

   0:         0.00 cm**-1
   1:         0.00 cm**-1
   2:         0.00 cm**-1
   3:         0.00 cm**-1
   4:         0.00 cm**-1
   5:         0.00 cm**-1
   6:        37.36 cm**-1
   7:        64.39 cm**-1
   8:       197.96 cm**-1
   9:       280.53 cm**-1
  10:       283.68 cm**-1
  11:       425.50 cm**-1
  12:       622.53 cm**-1
  13:       647.80 cm**-1
  14:       652.09 cm**-1
  15:       737.73 cm**-1
  16:       778.34 cm**-1
  17:       878.31 cm**-1
  18:       919.09 cm**-1
  19:      1052.58 cm**-1
  20:      1057.28 cm**-1
  21:      1101.74 cm**-1
  22:      1105.73 cm**-1
  23:      1126.86 cm**-1
  24:      1143.31 cm**-1
  25:      1149.67 cm**-1
  26:      1209.45 cm**-1
  27:      1294.22 cm**-1
  28:      1403.69 cm**-1
  29:      1446.17 cm**-1
  30:      1446.97 cm**-1
  31:      1453.43 cm**-1
  32:      1463.82 cm**-1
  33:      1464.87 cm**-1
  34:      1467.25 cm**-1
  35:      1507.00 cm**-1
  36:      1513.64 cm**-1
  37:      1662.05 cm**-1
  38:      1674.73 cm**-1
  39:      3103.17 cm**-1
  40:      3103.27 cm**-1
  41:      3221.72 cm**-1
  42:      3221.87 cm**-1
  43:      3232.28 cm**-1
  44:      3232.61 cm**-1
  45:      3298.60 cm**-1
  46:      3299.04 cm**-1
  47:      3317.38 cm**-1

IR SPECTRUM
-----------

 Mode   freq       eps      Int      T**2         TX        TY        TZ
       cm**-1   L/(mol*cm) km/mol    a.u.
----------------------------------------------------------------------------
  6:     37.36   0.000055    0.28  0.000462  ( 0.021458  0.000986  0.000938)
  7:     64.39   0.000030    0.15  0.000147  ( 0.012121  0.000195  0.000490)
  8:    197.96   0.000990    5.00  0.001561  ( 0.039287  0.000204  0.004141)
  9:    280.53   0.000057    0.29  0.000063  (-0.000337 -0.000314  0.007917)
 10:    283.68   0.000055    0.28  0.000061  (-0.001242 -0.000872  0.007630)
 11:    425.50   0.000013    0.07  0.000010  ( 0.000040 -0.003116 -0.000142)
 12:    622.53   0.000236    1.19  0.000118  (-0.000776 -0.000817  0.010809)
 13:    647.80   0.000159    0.80  0.000076  (-0.008662  0.000340 -0.001114)
 14:    652.09   0.005697   28.79  0.002726  (-0.051942 -0.000576 -0.005283)
 15:    737.73   0.001206    6.09  0.000510  (-0.000246 -0.022520 -0.001702)
 16:    778.34   0.006696   33.84  0.002685  (-0.051537  0.000140 -0.005329)
 17:    878.31   0.004538   22.93  0.001612  (-0.039948 -0.000166 -0.004070)
 18:    919.09   0.000014    0.07  0.000005  (-0.002146  0.000181  0.000001)
 19:   1052.58   0.000220    1.11  0.000065  (-0.000114 -0.008067  0.000103)
 20:   1057.28   0.000322    1.63  0.000095  (-0.000847 -0.000433  0.009699)
 21:   1101.74   0.001337    6.76  0.000379  (-0.002099  0.002000  0.019241)
 22:   1105.73   0.001123    5.68  0.000317  ( 0.000242  0.017559 -0.002924)
 23:   1126.86   0.000874    4.42  0.000242  (-0.001559 -0.001003  0.015449)
 24:   1143.31   0.000010    0.05  0.000003  (-0.000753 -0.001488  0.000049)
 25:   1149.67   0.000060    0.30  0.000016  (-0.003937 -0.000558 -0.000596)
 26:   1209.45   0.016331   82.53  0.004214  (-0.001063  0.064721  0.004883)
 27:   1294.22   0.000067    0.34  0.000016  ( 0.000147  0.004003  0.000385)
 28:   1403.69   0.000118    0.59  0.000026  (-0.000277 -0.000348  0.005092)
 29:   1446.17   0.000667    3.37  0.000144  (-0.002324 -0.011768 -0.000146)
 30:   1446.97   0.000811    4.10  0.000175  ( 0.002688  0.012946  0.000049)
 31:   1453.43   0.000517    2.61  0.000111  ( 0.001143 -0.002578 -0.010147)
 32:   1463.82   0.000948    4.79  0.000202  (-0.005642 -0.001012  0.013010)
 33:   1464.87   0.007064   35.70  0.001505  ( 0.036713  0.000259 -0.012527)
 34:   1467.25   0.006266   31.67  0.001333  ( 0.018154 -0.002847  0.031544)
 35:   1507.00   0.000242    1.22  0.000050  ( 0.000009 -0.007031 -0.000760)
 36:   1513.64   0.001853    9.36  0.000382  ( 0.001385  0.001596 -0.019429)
 37:   1662.05   0.002404   12.15  0.000451  ( 0.002064  0.001977 -0.021052)
 38:   1674.73   0.019402   98.05  0.003615  (-0.000933  0.059950  0.004521)
 39:   3103.17   0.000201    1.02  0.000020  (-0.000409  0.001888  0.004064)
 40:   3103.27   0.000678    3.43  0.000068  ( 0.000003  0.008244 -0.000458)
 41:   3221.72   0.000066    0.33  0.000006  (-0.002516 -0.000087 -0.000233)
 42:   3221.87   0.000140    0.71  0.000014  ( 0.003663  0.000035  0.000425)
 43:   3232.28   0.000048    0.24  0.000005  ( 0.000405 -0.000673 -0.001997)
 44:   3232.61   0.000041    0.21  0.000004  ( 0.000196  0.001047 -0.001693)
 45:   3298.60   0.007189   36.33  0.000680  ( 0.002632  0.003336 -0.025730)
 46:   3299.04   0.004268   21.57  0.000404  (-0.000438  0.019828  0.003222)
 47:   3317.38   0.003180   16.07  0.000299  ( 0.001773  0.000764 -0.017188)

--------------------------
THERMOCHEMISTRY AT 298.15K
--------------------------

Temperature         ... 298.15 K
Pressure            ... 1.00 atm
Total Mass          ... 97.14 AMU

Throughout the following assumptions are being made:
  (1) The electronic state is orbitally nondegenerate
  (2) There are no thermally accessible electronically excited states
  (3) Hindered rotations indicated by low frequency modes are not
      treated as such but are treated as vibrations and this may
      cause some error
  (4) All equations used are the standard statistical mechanics
      equations for an ideal gas
  (5) All vibrations are strictly harmonic

freq.      37.36  E(vib)   ...       0.54
freq.      64.39  E(vib)   ...       0.51
freq.     197.96  E(vib)   ...       0.35
freq.     280.53  E(vib)   ...       0.28
freq.     283.68  E(vib)   ...       0.28
freq.     425.50  E(vib)   ...       0.18
freq.     622.53  E(vib)   ...       0.09
freq.     647.80  E(vib)   ...       0.09
freq.     652.09  E(vib)   ...       0.08
freq.     737.73  E(vib)   ...       0.06
freq.     778.34  E(vib)   ...       0.05
freq.     878.31  E(vib)   ...       0.04
freq.     919.09  E(vib)   ...       0.03
freq.    1052.58  E(vib)   ...       0.02
freq.    1057.28  E(vib)   ...       0.02
freq.    1101.74  E(vib)   ...       0.02
freq.    1105.73  E(vib)   ...       0.02
freq.    1126.86  E(vib)   ...       0.01
freq.    1143.31  E(vib)   ...       0.01
freq.    1149.67  E(vib)   ...       0.01
freq.    1209.45  E(vib)   ...       0.01
freq.    1294.22  E(vib)   ...       0.01
freq.    1403.69  E(vib)   ...       0.00
freq.    1446.17  E(vib)   ...       0.00
freq.    1446.97  E(vib)   ...       0.00
freq.    1453.43  E(vib)   ...       0.00
freq.    1463.82  E(vib)   ...       0.00
freq.    1464.87  E(vib)   ...       0.00
freq.    1467.25  E(vib)   ...       0.00
freq.    1507.00  E(vib)   ...       0.00
freq.    1513.64  E(vib)   ...       0.00
freq.    1662.05  E(vib)   ...       0.00
freq.    1674.73  E(vib)   ...       0.00
freq.    3103.17  E(vib)   ...       0.00
freq.    3103.27  E(vib)   ...       0.00
freq.    3221.72  E(vib)   ...       0.00
freq.    3221.87  E(vib)   ...       0.00
freq.    3232.28  E(vib)   ...       0.00
freq.    3232.61  E(vib)   ...       0.00
freq.    3298.60  E(vib)   ...       0.00
freq.    3299.04  E(vib)   ...       0.00
freq.    3317.38  E(vib)   ...       0.00

------------
INNER ENERGY
------------

The inner energy is: U= E(el) + E(ZPE) + E(vib) + E(rot) + E(trans)
    E(el)   - is the total energy from the electronic structure calculation
              = E(kin-el) + E(nuc-el) + E(el-el) + E(nuc-nuc)
    E(ZPE)  - the the zero temperature vibrational energy from the frequency calculation
    E(vib)  - the the finite temperature correction to E(ZPE) due to population
              of excited vibrational states
    E(rot)  - is the rotational thermal energy
    E(trans)- is the translational thermal energy

Summary of contributions to the inner energy U:
Electronic energy                ...   -304.93197550 Eh
Zero point energy                ...      0.14192917 Eh      89.06 kcal/mol
Thermal vibrational correction   ...      0.00436832 Eh       2.74 kcal/mol
Thermal rotational correction    ...      0.00141627 Eh       0.89 kcal/mol
Thermal translational correction ...      0.00141627 Eh       0.89 kcal/mol
-----------------------------------------------------------------------
Total thermal energy                   -304.78284547 Eh

Summary of corrections to the electronic energy:
(perhaps to be used in another calculation)
Total thermal correction                  0.00720086 Eh       4.52 kcal/mol
Non-thermal (ZPE) correction              0.14192917 Eh      89.06 kcal/mol
-----------------------------------------------------------------------
Total correction                          0.14913003 Eh      93.58 kcal/mol

--------
ENTHALPY
--------

The enthalpy is H = U + kB*T
                kB is Boltzmann's constant
Total free energy                 ...   -304.78284547 Eh
Thermal Enthalpy correction       ...      0.00094421 Eh       0.59 kcal/mol
-----------------------------------------------------------------------
Total Enthalpy                    ...   -304.78190126 Eh

Note: Only C1 symmetry has been detected, increase convergence thresholds
      if your molecule has a higher symmetry. Symmetry factor of 1.0 is
      used for the rotational entropy correction.

Note: Rotational entropy computed according to Herzberg
Infrared and Raman Spectra, Chapter V,1, Van Nostrand Reinhold, 1945
Point Group:  C1, Symmetry Number:   1
Rotational constants in cm-1:     0.228105     0.068480     0.053763

Vibrational entropy computed according to the QRRHO of S. Grimme
Chem.Eur.J. 2012 18 9955

-------
ENTROPY
-------

The entropy contributions are T*S = T*(S(el)+S(vib)+S(rot)+S(trans))
     S(el)   - electronic entropy
     S(vib)  - vibrational entropy
     S(rot)  - rotational entropy
     S(trans)- translational entropy
The entropies will be listed as multiplied by the temperature to get
units of energy

Electronic entropy                ...      0.00000000 Eh      0.00 kcal/mol
Vibrational entropy               ...      0.00757878 Eh      4.76 kcal/mol
Rotational entropy                ...      0.01285431 Eh      8.07 kcal/mol
Translational entropy             ...      0.01883016 Eh     11.82 kcal/mol
-----------------------------------------------------------------------
Final entropy term                ...      0.03926325 Eh     24.64 kcal/mol

In case the symmetry of your molecule has not been determined correctly
or in case you have a reason to use a different symmetry number we print
out the resulting rotational entropy values for sn=1,12 :
 --------------------------------------------------------
|  sn= 1 | S(rot)=       0.01285431 Eh      8.07 kcal/mol|
|  sn= 2 | S(rot)=       0.01219985 Eh      7.66 kcal/mol|
|  sn= 3 | S(rot)=       0.01181702 Eh      7.42 kcal/mol|
|  sn= 4 | S(rot)=       0.01154540 Eh      7.24 kcal/mol|
|  sn= 5 | S(rot)=       0.01133471 Eh      7.11 kcal/mol|
|  sn= 6 | S(rot)=       0.01116257 Eh      7.00 kcal/mol|
|  sn= 7 | S(rot)=       0.01101702 Eh      6.91 kcal/mol|
|  sn= 8 | S(rot)=       0.01089094 Eh      6.83 kcal/mol|
|  sn= 9 | S(rot)=       0.01077973 Eh      6.76 kcal/mol|
|  sn=10 | S(rot)=       0.01068025 Eh      6.70 kcal/mol|
|  sn=11 | S(rot)=       0.01059026 Eh      6.65 kcal/mol|
|  sn=12 | S(rot)=       0.01050811 Eh      6.59 kcal/mol|
 --------------------------------------------------------

-------------------
GIBBS FREE ENERGY
-------------------

The Gibbs free energy is G = H - T*S

                             ****ORCA TERMINATED NORMALLY****
TOTAL RUN TIME: 0 days 0 hours 5 minutes 42 seconds 677 msec
