                         Program Version 5.0.3 -  RELEASE  -
|  1> ! Opt FREQ wB97X D4 Def2-SVP SlowConv TightSCF DEFGRID2 Def2/J RIJCOSX
|  2> %MAXCORE 4000
|  3> %scf MaxIter 20000 end
|  4> %geom
|  5> MaxIter 500
|  6> end
|  7> %PAL NPROCS 8 END
|  8>
|  9> * xyz 1 1
| 10> C 0.14742 0.66983 -1.20749
| 11> C 0.04633 -0.72698 -1.21449
| 12> N 0.13709 1.08361 0.08178
| 13> N -0.14957 -1.08225 0.06345
| 14> C 0.03662 -0.06146 0.82249
| 15> H 0.34554 1.33674 -2.04389
| 16> H 0.11203 -1.36249 -2.09025
| 17> C 0.15534 2.48979 0.58321
| 18> C -0.2392 -2.43687 0.50405
| 19> H 0.09973 2.4365 1.70336
| 20> H -0.35008 -2.37866 1.58998
| 21> H 0.02507 -0.12901 1.92077
| 22> C -1.14097 3.10767 0.03241
| 23> C -1.5032 -3.01378 -0.11397
| 24> C 1.05171 -3.17197 0.22732
| 25> C 1.46912 3.15234 0.11794
| 26> H -1.00897 3.23652 -1.06325
| 27> H -1.41646 -3.07364 -1.24536
| 28> H 1.31678 -3.06035 -0.82466
| 29> H 1.59917 3.01148 -0.98209
| 30> H -2.00352 2.36559 0.21864
| 31> H -2.39521 -2.40943 0.15592
| 32> H 1.88955 -2.80524 0.86534
| 33> H 2.34563 2.6846 0.63197
| 34> H -1.43181 4.0865 0.46645
| 35> H -1.64189 -4.06654 0.18163
| 36> H 0.96236 -4.26727 0.32392
| 37> H 1.45745 4.25721 0.27546
| 38> **                         ****END OF INPUT****
 Total Charge           Charge          ....    1
 Multiplicity           Mult            ....    1
 Number of Electrons    NEL             ....   84
Dispersion correction           -0.004014581
FINAL SINGLE POINT ENERGY      -462.032789220020
Dispersion correction            ... Starting D4
Dispersion correction           -0.003990811
FINAL SINGLE POINT ENERGY      -462.052046963100
Dispersion correction            ... Starting D4
Dispersion correction           -0.003976868
FINAL SINGLE POINT ENERGY      -462.057481395140
Dispersion correction            ... Starting D4
FINAL SINGLE POINT ENERGY      -462.058920572829
FINAL SINGLE POINT ENERGY      -462.059503045424
FINAL SINGLE POINT ENERGY      -462.059748649707
FINAL SINGLE POINT ENERGY      -462.059822223656
FINAL SINGLE POINT ENERGY      -462.059840339863
FINAL SINGLE POINT ENERGY      -462.059847436572
FINAL SINGLE POINT ENERGY      -462.059851389967
FINAL SINGLE POINT ENERGY      -462.059856162356
FINAL SINGLE POINT ENERGY      -462.059862196749
FINAL SINGLE POINT ENERGY      -462.059864301341
FINAL SINGLE POINT ENERGY      -462.059874011975
Dispersion correction           -0.003968715
FINAL SINGLE POINT ENERGY      -462.059887172922
Dispersion correction            ... Starting D4
Dispersion correction           -0.003968811
FINAL SINGLE POINT ENERGY      -462.059888824795
Dispersion correction            ... Starting D4
                    ***********************HURRAY********************

CARTESIAN COORDINATES (ANGSTROEM)
---------------------------------
  C      0.151330    0.678100   -1.280618
  C      0.088755   -0.682872   -1.289241
  N      0.046501    1.080212    0.031833
  N     -0.052462   -1.089980    0.018347
  C     -0.075038   -0.006427    0.791265
  H      0.264336    1.383225   -2.101513
  H      0.135533   -1.384052   -2.119840
  C      0.073232    2.480025    0.526409
  C     -0.171548   -2.491380    0.494855
  H     -0.046023    2.387580    1.617627
  H     -0.246967   -2.403558    1.590353
  H     -0.177623   -0.008643    1.876369
  C     -1.105780    3.259096   -0.039933
  C     -1.449789   -3.118027   -0.044754
  C      1.085630   -3.273836    0.142537
  C      1.423546    3.114464    0.222971
  H     -1.023461    3.377135   -1.131612
  H     -1.413331   -3.226464   -1.139958
  H      1.199894   -3.384602   -0.946997
  H      1.578408    3.232507   -0.860796
  H     -2.063253    2.770297    0.191162
  H     -2.335245   -2.522576    0.221262
  H      1.988778   -2.792481    0.544867
  H      2.251629    2.519395    0.634654
  H     -1.122366    4.265680    0.400959
  H     -1.572835   -4.122719    0.383688
  H      1.018123   -4.283235    0.572200
  H      1.466087    4.115576    0.674545

 Multiplicity           Mult            ....    1
 Number of Electrons    NEL             ....   84
 Basis Dimension        Dim             ....  239

ORBITAL ENERGIES
----------------

  NO   OCC          E(Eh)            E(eV)
   0   2.0000     -14.655398      -398.7937
   1   2.0000     -14.655363      -398.7927
   2   2.0000     -10.532180      -286.5952
   3   2.0000     -10.480809      -285.1973
   4   2.0000     -10.480242      -285.1819
   5   2.0000     -10.478217      -285.1268
   6   2.0000     -10.478189      -285.1260
   7   2.0000     -10.406970      -283.1880
   8   2.0000     -10.406905      -283.1863
   9   2.0000     -10.406871      -283.1854
  10   2.0000     -10.406799      -283.1834
  11   2.0000      -1.361249       -37.0415
  12   2.0000      -1.239343       -33.7242
  13   2.0000      -1.104017       -30.0418
  14   2.0000      -1.065916       -29.0051
  15   2.0000      -1.050824       -28.5944
  16   2.0000      -0.954983       -25.9864
  17   2.0000      -0.954222       -25.9657
  18   2.0000      -0.934990       -25.4424
  19   2.0000      -0.932192       -25.3662
  20   2.0000      -0.882005       -24.0006
  21   2.0000      -0.849453       -23.1148
  22   2.0000      -0.807651       -21.9773
  23   2.0000      -0.771515       -20.9940
  24   2.0000      -0.758379       -20.6365
  25   2.0000      -0.734563       -19.9885
  26   2.0000      -0.728214       -19.8157
  27   2.0000      -0.710759       -19.3407
  28   2.0000      -0.698769       -19.0145
  29   2.0000      -0.698044       -18.9948
  30   2.0000      -0.693564       -18.8728
  31   2.0000      -0.654036       -17.7972
  32   2.0000      -0.635481       -17.2923
  33   2.0000      -0.634038       -17.2530
  34   2.0000      -0.627895       -17.0859
  35   2.0000      -0.622121       -16.9288
  36   2.0000      -0.605361       -16.4727
  37   2.0000      -0.597287       -16.2530
  38   2.0000      -0.596378       -16.2283
  39   2.0000      -0.591976       -16.1085
  40   2.0000      -0.555925       -15.1275
  41   2.0000      -0.520803       -14.1718
  42   0.0000      -0.084382        -2.2962
  43   0.0000      -0.050416        -1.3719
  44   0.0000      -0.000828        -0.0225
  45   0.0000       0.009095         0.2475
  46   0.0000       0.018572         0.5054

MULLIKEN ATOMIC CHARGES
-----------------------
   0 C :    0.070699
   1 C :    0.070814
   2 N :   -0.185765
   3 N :   -0.185849
   4 C :    0.198121
   5 H :    0.097031
   6 H :    0.097088
   7 C :   -0.081502
   8 C :   -0.081375
   9 H :    0.063047
  10 H :    0.063099
  11 H :    0.115970
  12 C :   -0.005258
  13 C :   -0.003829
  14 C :   -0.006268
  15 C :   -0.004735
  16 H :    0.051661
  17 H :    0.051805
  18 H :    0.051657
  19 H :    0.051867
  20 H :    0.061826
  21 H :    0.060764
  22 H :    0.062199
  23 H :    0.060994
  24 H :    0.081430
  25 H :    0.081552
  26 H :    0.081381
  27 H :    0.081576
Sum of atomic charges:    1.0000000

LOEWDIN ATOMIC CHARGES
----------------------
   0 C :    0.023925
   1 C :    0.023898
   2 N :    0.098699
   3 N :    0.098725
   4 C :    0.105446
   5 H :    0.056789
   6 H :    0.056797
   7 C :    0.037744
   8 C :    0.037781
   9 H :    0.041079
  10 H :    0.041103
  11 H :    0.058570
  12 C :   -0.050806
  13 C :   -0.050837
  14 C :   -0.050862
  15 C :   -0.050866
  16 H :    0.036633
  17 H :    0.036791
  18 H :    0.036559
  19 H :    0.036755
  20 H :    0.040225
  21 H :    0.039859
  22 H :    0.040362
  23 H :    0.039919
  24 H :    0.053986
  25 H :    0.053828
  26 H :    0.054015
  27 H :    0.053884

  Mayer bond orders larger than 0.100000
B(  0-C ,  1-C ) :   1.6112 B(  0-C ,  2-N ) :   1.1770 B(  0-C ,  5-H ) :   0.9832
B(  1-C ,  3-N ) :   1.1768 B(  1-C ,  6-H ) :   0.9832 B(  2-N ,  4-C ) :   1.3574
B(  2-N ,  7-C ) :   0.8337 B(  3-N ,  4-C ) :   1.3576 B(  3-N ,  8-C ) :   0.8337
B(  4-C , 11-H ) :   0.9715 B(  7-C ,  9-H ) :   0.9404 B(  7-C , 12-C ) :   1.0643
B(  7-C , 15-C ) :   1.0640 B(  8-C , 10-H ) :   0.9404 B(  8-C , 13-C ) :   1.0645
B(  8-C , 14-C ) :   1.0639 B( 12-C , 16-H ) :   0.9626 B( 12-C , 20-H ) :   0.9668
B( 12-C , 24-H ) :   0.9675 B( 13-C , 17-H ) :   0.9626 B( 13-C , 21-H ) :   0.9667
B( 13-C , 25-H ) :   0.9677 B( 14-C , 18-H ) :   0.9627 B( 14-C , 22-H ) :   0.9669
B( 14-C , 26-H ) :   0.9675 B( 15-C , 19-H ) :   0.9627 B( 15-C , 23-H ) :   0.9669
B( 15-C , 27-H ) :   0.9677

Dispersion correction           -0.003968772
FINAL SINGLE POINT ENERGY      -462.059889764345

DIPOLE MOMENT
-------------
                                X             Y             Z
Electronic contribution:      0.07547      -0.00164      -0.58365
Nuclear contribution   :     -0.09869       0.00120       0.86222
                        -----------------------------------------
Total Dipole Moment    :     -0.02322      -0.00044       0.27857
                        -----------------------------------------
Magnitude (a.u.)       :      0.27954
Magnitude (Debye)      :      0.71052

Dispersion correction in the Hessian             ... Starting D4

VIBRATIONAL FREQUENCIES
-----------------------

Scaling factor for frequencies =  1.000000000  (already applied!)

   0:         0.00 cm**-1
   1:         0.00 cm**-1
   2:         0.00 cm**-1
   3:         0.00 cm**-1
   4:         0.00 cm**-1
   5:         0.00 cm**-1
   6:        24.63 cm**-1
   7:        31.19 cm**-1
   8:       117.12 cm**-1
   9:       151.76 cm**-1
  10:       154.53 cm**-1
  11:       226.91 cm**-1
  12:       243.15 cm**-1
  13:       253.34 cm**-1
  14:       265.27 cm**-1
  15:       278.86 cm**-1
  16:       299.08 cm**-1
  17:       355.56 cm**-1
  18:       395.32 cm**-1
  19:       440.79 cm**-1
  20:       453.21 cm**-1
  21:       550.53 cm**-1
  22:       625.89 cm**-1
  23:       669.93 cm**-1
  24:       685.25 cm**-1
  25:       690.13 cm**-1
  26:       775.36 cm**-1
  27:       883.79 cm**-1
  28:       910.32 cm**-1
  29:       915.47 cm**-1
  30:       919.24 cm**-1
  31:       938.54 cm**-1
  32:       942.24 cm**-1
  33:       959.87 cm**-1
  34:       966.48 cm**-1
  35:      1034.94 cm**-1
  36:      1043.64 cm**-1
  37:      1091.69 cm**-1
  38:      1109.93 cm**-1
  39:      1116.72 cm**-1
  40:      1172.94 cm**-1
  41:      1173.93 cm**-1
  42:      1175.89 cm**-1
  43:      1198.78 cm**-1
  44:      1218.13 cm**-1
  45:      1267.66 cm**-1
  46:      1346.34 cm**-1
  47:      1349.98 cm**-1
  48:      1351.69 cm**-1
  49:      1370.00 cm**-1
  50:      1402.69 cm**-1
  51:      1411.32 cm**-1
  52:      1414.55 cm**-1
  53:      1422.17 cm**-1
  54:      1426.89 cm**-1
  55:      1456.97 cm**-1
  56:      1459.37 cm**-1
  57:      1467.60 cm**-1
  58:      1470.01 cm**-1
  59:      1475.55 cm**-1
  60:      1478.06 cm**-1
  61:      1481.98 cm**-1
  62:      1485.04 cm**-1
  63:      1501.83 cm**-1
  64:      1506.15 cm**-1
  65:      1647.16 cm**-1
  66:      1647.67 cm**-1
  67:      3078.71 cm**-1
  68:      3079.07 cm**-1
  69:      3080.41 cm**-1
  70:      3080.48 cm**-1
  71:      3118.95 cm**-1
  72:      3119.09 cm**-1
  73:      3180.41 cm**-1
  74:      3180.68 cm**-1
  75:      3183.34 cm**-1
  76:      3183.47 cm**-1
  77:      3194.62 cm**-1
  78:      3194.95 cm**-1
  79:      3196.97 cm**-1
  80:      3197.29 cm**-1
  81:      3297.03 cm**-1
  82:      3302.93 cm**-1
  83:      3320.75 cm**-1

IR SPECTRUM
-----------

 Mode   freq       eps      Int      T**2         TX        TY        TZ
       cm**-1   L/(mol*cm) km/mol    a.u.
----------------------------------------------------------------------------
  6:     24.63   0.000002    0.01  0.000023  (-0.004677  0.000408 -0.001181)
  7:     31.19   0.000002    0.01  0.000016  (-0.003943  0.000680 -0.000306)
  8:    117.12   0.000055    0.28  0.000148  ( 0.011996 -0.001040  0.001693)
  9:    151.76   0.000002    0.01  0.000004  ( 0.000585  0.000012  0.001990)
 10:    154.53   0.000050    0.25  0.000101  (-0.000971  0.000159  0.009985)
 11:    226.91   0.000001    0.00  0.000001  ( 0.000750 -0.000249  0.000654)
 12:    243.15   0.000001    0.01  0.000002  ( 0.000877  0.000496  0.000854)
 13:    253.34   0.000014    0.07  0.000017  ( 0.000648  0.002524 -0.003241)
 14:    265.27   0.000008    0.04  0.000009  (-0.000479  0.000847  0.002894)
 15:    278.86   0.000028    0.14  0.000031  ( 0.001225 -0.003083 -0.004470)
 16:    299.08   0.000038    0.19  0.000040  ( 0.000981  0.006107 -0.001319)
 17:    355.56   0.000021    0.10  0.000018  ( 0.000795  0.004193  0.000113)
 18:    395.32   0.000360    1.82  0.000285  ( 0.016720 -0.001570  0.001598)
 19:    440.79   0.000000    0.00  0.000000  ( 0.000055  0.000034  0.000361)
 20:    453.21   0.000056    0.28  0.000038  ( 0.000563  0.000073 -0.006168)
 21:    550.53   0.000234    1.18  0.000133  ( 0.000212  0.011524  0.000054)
 22:    625.89   0.000004    0.02  0.000002  (-0.000750  0.000801  0.000902)
 23:    669.93   0.001329    6.72  0.000619  ( 0.002097  0.024791  0.000130)
 24:    685.25   0.007940   40.13  0.003616  ( 0.059724 -0.003762  0.005901)
 25:    690.13   0.000026    0.13  0.000012  ( 0.003268  0.001039  0.000417)
 26:    775.36   0.004890   24.71  0.001968  ( 0.044052 -0.002270  0.004752)
 27:    883.79   0.003318   16.77  0.001172  ( 0.034028 -0.001089  0.003543)
 28:    910.32   0.000089    0.45  0.000030  ( 0.000338 -0.005357 -0.001280)
 29:    915.47   0.000256    1.29  0.000087  (-0.000042  0.000749 -0.009309)
 30:    919.24   0.000006    0.03  0.000002  ( 0.001443  0.000300 -0.000073)
 31:    938.54   0.000240    1.21  0.000080  ( 0.008875 -0.000300  0.000893)
 32:    942.24   0.000293    1.48  0.000097  ( 0.009850  0.000071  0.000239)
 33:    959.87   0.000158    0.80  0.000052  ( 0.007115 -0.000369  0.000870)
 34:    966.48   0.000170    0.86  0.000055  ( 0.007397  0.000436  0.000001)
 35:   1034.94   0.001626    8.22  0.000490  (-0.001018 -0.022119  0.000295)
 36:   1043.64   0.000328    1.66  0.000098  (-0.001314  0.001210  0.009741)
 37:   1091.69   0.000065    0.33  0.000019  ( 0.000192 -0.003790 -0.002071)
 38:   1109.93   0.003366   17.01  0.000947  (-0.003304 -0.000193  0.030587)
 39:   1116.72   0.000730    3.69  0.000204  ( 0.001904  0.000237 -0.014154)
 40:   1172.94   0.016573   83.76  0.004409  (-0.001611 -0.066383 -0.000327)
 41:   1173.93   0.000624    3.15  0.000166  ( 0.006221  0.011269  0.000479)
 42:   1175.89   0.001416    7.15  0.000376  ( 0.019233  0.001457  0.001920)
 43:   1198.78   0.000051    0.26  0.000013  ( 0.000034  0.003316  0.001527)
 44:   1218.13   0.017907   90.49  0.004587  (-0.003235 -0.067652 -0.000285)
 45:   1267.66   0.004841   24.47  0.001192  (-0.001942 -0.034466 -0.000319)
 46:   1346.34   0.000662    3.35  0.000153  ( 0.001133 -0.000093 -0.012334)
 47:   1349.98   0.000005    0.02  0.000001  (-0.001040 -0.000239 -0.000049)
 48:   1351.69   0.000030    0.15  0.000007  ( 0.002592 -0.000269 -0.000390)
 49:   1370.00   0.008584   43.38  0.001955  (-0.002968 -0.044119 -0.000163)
 50:   1402.69   0.001014    5.12  0.000226  ( 0.000020 -0.001401 -0.014951)
 51:   1411.32   0.002955   14.93  0.000653  (-0.025350  0.001320 -0.002987)
 52:   1414.55   0.004627   23.38  0.001021  (-0.030980  0.007808 -0.000137)
 53:   1422.17   0.003606   18.23  0.000791  ( 0.005975  0.026369 -0.007766)
 54:   1426.89   0.002151   10.87  0.000470  (-0.004262 -0.011329 -0.017999)
 55:   1456.97   0.000012    0.06  0.000003  ( 0.001091  0.000044 -0.001147)
 56:   1459.37   0.000026    0.13  0.000006  ( 0.001189  0.000329 -0.002029)
 57:   1467.60   0.000541    2.73  0.000115  ( 0.010651 -0.000071  0.001257)
 58:   1470.01   0.000667    3.37  0.000142  (-0.011326 -0.000715 -0.003593)
 59:   1475.55   0.003230   16.32  0.000683  ( 0.002710  0.007486 -0.024893)
 60:   1478.06   0.001089    5.51  0.000230  ( 0.000053  0.015009  0.002169)
 61:   1481.98   0.005855   29.59  0.001233  (-0.003124  0.012038  0.032838)
 62:   1485.04   0.002581   13.04  0.000542  (-0.002650 -0.012608  0.019399)
 63:   1501.83   0.001108    5.60  0.000230  ( 0.001186  0.015120 -0.000331)
 64:   1506.15   0.000086    0.43  0.000018  (-0.000479 -0.000219  0.004181)
 65:   1647.16   0.002273   11.49  0.000431  ( 0.002134  0.002507 -0.020488)
 66:   1647.67   0.028526  144.16  0.005403  ( 0.003696  0.073401  0.001159)
 67:   3078.71   0.000744    3.76  0.000075  (-0.008364  0.000297 -0.002320)
 68:   3079.07   0.000868    4.39  0.000088  (-0.009348  0.000463 -0.000636)
 69:   3080.41   0.000218    1.10  0.000022  (-0.002635  0.001331  0.003655)
 70:   3080.48   0.000660    3.33  0.000067  (-0.000973 -0.000609  0.008093)
 71:   3118.95   0.000018    0.09  0.000002  ( 0.000200  0.001194  0.000608)
 72:   3119.09   0.001503    7.60  0.000150  (-0.001104 -0.000102  0.012212)
 73:   3180.41   0.000448    2.26  0.000044  ( 0.006391 -0.000711 -0.001602)
 74:   3180.68   0.000420    2.12  0.000041  ( 0.006292 -0.000561  0.001144)
 75:   3183.34   0.000608    3.07  0.000060  ( 0.000586  0.002025  0.007425)
 76:   3183.47   0.002858   14.44  0.000280  (-0.001459 -0.001074  0.016639)
 77:   3194.62   0.000443    2.24  0.000043  (-0.006524  0.000596 -0.000629)
 78:   3194.95   0.000527    2.67  0.000052  (-0.007124  0.000822 -0.000298)
 79:   3196.97   0.000465    2.35  0.000045  (-0.000672 -0.006515  0.001573)
 80:   3197.29   0.000375    1.89  0.000037  ( 0.000707  0.005708  0.001868)
 81:   3297.03   0.005318   26.88  0.000503  (-0.002154 -0.000083  0.022332)
 82:   3302.93   0.002838   14.34  0.000268  ( 0.000810  0.016355  0.000009)
 83:   3320.75   0.002472   12.49  0.000232  (-0.001525  0.000069  0.015166)

--------------------------
THERMOCHEMISTRY AT 298.15K
--------------------------

Temperature         ... 298.15 K
Pressure            ... 1.00 atm
Total Mass          ... 153.25 AMU

Throughout the following assumptions are being made:
  (1) The electronic state is orbitally nondegenerate
  (2) There are no thermally accessible electronically excited states
  (3) Hindered rotations indicated by low frequency modes are not
      treated as such but are treated as vibrations and this may
      cause some error
  (4) All equations used are the standard statistical mechanics
      equations for an ideal gas
  (5) All vibrations are strictly harmonic

freq.      24.63  E(vib)   ...       0.56
freq.      31.19  E(vib)   ...       0.55
freq.     117.12  E(vib)   ...       0.44
freq.     151.76  E(vib)   ...       0.40
freq.     154.53  E(vib)   ...       0.40
freq.     226.91  E(vib)   ...       0.33
freq.     243.15  E(vib)   ...       0.31
freq.     253.34  E(vib)   ...       0.30
freq.     265.27  E(vib)   ...       0.29
freq.     278.86  E(vib)   ...       0.28
freq.     299.08  E(vib)   ...       0.26
freq.     355.56  E(vib)   ...       0.22
freq.     395.32  E(vib)   ...       0.20
freq.     440.79  E(vib)   ...       0.17
freq.     453.21  E(vib)   ...       0.16
freq.     550.53  E(vib)   ...       0.12
freq.     625.89  E(vib)   ...       0.09
freq.     669.93  E(vib)   ...       0.08
freq.     685.25  E(vib)   ...       0.07
freq.     690.13  E(vib)   ...       0.07
freq.     775.36  E(vib)   ...       0.05
freq.     883.79  E(vib)   ...       0.04
freq.     910.32  E(vib)   ...       0.03
freq.     915.47  E(vib)   ...       0.03
freq.     919.24  E(vib)   ...       0.03
freq.     938.54  E(vib)   ...       0.03
freq.     942.24  E(vib)   ...       0.03
freq.     959.87  E(vib)   ...       0.03
freq.     966.48  E(vib)   ...       0.03
freq.    1034.94  E(vib)   ...       0.02
freq.    1043.64  E(vib)   ...       0.02
freq.    1091.69  E(vib)   ...       0.02
freq.    1109.93  E(vib)   ...       0.02
freq.    1116.72  E(vib)   ...       0.01
freq.    1172.94  E(vib)   ...       0.01
freq.    1173.93  E(vib)   ...       0.01
freq.    1175.89  E(vib)   ...       0.01
freq.    1198.78  E(vib)   ...       0.01
freq.    1218.13  E(vib)   ...       0.01
freq.    1267.66  E(vib)   ...       0.01
freq.    1346.34  E(vib)   ...       0.01
freq.    1349.98  E(vib)   ...       0.01
freq.    1351.69  E(vib)   ...       0.01
freq.    1370.00  E(vib)   ...       0.01
freq.    1402.69  E(vib)   ...       0.00
freq.    1411.32  E(vib)   ...       0.00
freq.    1414.55  E(vib)   ...       0.00
freq.    1422.17  E(vib)   ...       0.00
freq.    1426.89  E(vib)   ...       0.00
freq.    1456.97  E(vib)   ...       0.00
freq.    1459.37  E(vib)   ...       0.00
freq.    1467.60  E(vib)   ...       0.00
freq.    1470.01  E(vib)   ...       0.00
freq.    1475.55  E(vib)   ...       0.00
freq.    1478.06  E(vib)   ...       0.00
freq.    1481.98  E(vib)   ...       0.00
freq.    1485.04  E(vib)   ...       0.00
freq.    1501.83  E(vib)   ...       0.00
freq.    1506.15  E(vib)   ...       0.00
freq.    1647.16  E(vib)   ...       0.00
freq.    1647.67  E(vib)   ...       0.00
freq.    3078.71  E(vib)   ...       0.00
freq.    3079.07  E(vib)   ...       0.00
freq.    3080.41  E(vib)   ...       0.00
freq.    3080.48  E(vib)   ...       0.00
freq.    3118.95  E(vib)   ...       0.00
freq.    3119.09  E(vib)   ...       0.00
freq.    3180.41  E(vib)   ...       0.00
freq.    3180.68  E(vib)   ...       0.00
freq.    3183.34  E(vib)   ...       0.00
freq.    3183.47  E(vib)   ...       0.00
freq.    3194.62  E(vib)   ...       0.00
freq.    3194.95  E(vib)   ...       0.00
freq.    3196.97  E(vib)   ...       0.00
freq.    3197.29  E(vib)   ...       0.00
freq.    3297.03  E(vib)   ...       0.00
freq.    3302.93  E(vib)   ...       0.00
freq.    3320.75  E(vib)   ...       0.00

------------
INNER ENERGY
------------

The inner energy is: U= E(el) + E(ZPE) + E(vib) + E(rot) + E(trans)
    E(el)   - is the total energy from the electronic structure calculation
              = E(kin-el) + E(nuc-el) + E(el-el) + E(nuc-nuc)
    E(ZPE)  - the the zero temperature vibrational energy from the frequency calculation
    E(vib)  - the the finite temperature correction to E(ZPE) due to population
              of excited vibrational states
    E(rot)  - is the rotational thermal energy
    E(trans)- is the translational thermal energy

Summary of contributions to the inner energy U:
Electronic energy                ...   -462.05988976 Eh
Zero point energy                ...      0.25581583 Eh     160.53 kcal/mol
Thermal vibrational correction   ...      0.00931376 Eh       5.84 kcal/mol
Thermal rotational correction    ...      0.00141627 Eh       0.89 kcal/mol
Thermal translational correction ...      0.00141627 Eh       0.89 kcal/mol
-----------------------------------------------------------------------
Total thermal energy                   -461.79192764 Eh

Summary of corrections to the electronic energy:
(perhaps to be used in another calculation)
Total thermal correction                  0.01214630 Eh       7.62 kcal/mol
Non-thermal (ZPE) correction              0.25581583 Eh     160.53 kcal/mol
-----------------------------------------------------------------------
Total correction                          0.26796213 Eh     168.15 kcal/mol

--------
ENTHALPY
--------

The enthalpy is H = U + kB*T
                kB is Boltzmann's constant
Total free energy                 ...   -461.79192764 Eh
Thermal Enthalpy correction       ...      0.00094421 Eh       0.59 kcal/mol
-----------------------------------------------------------------------
Total Enthalpy                    ...   -461.79098343 Eh

Note: Only C1 symmetry has been detected, increase convergence thresholds
      if your molecule has a higher symmetry. Symmetry factor of 1.0 is
      used for the rotational entropy correction.

Note: Rotational entropy computed according to Herzberg
Infrared and Raman Spectra, Chapter V,1, Van Nostrand Reinhold, 1945
Point Group:  C1, Symmetry Number:   1
Rotational constants in cm-1:     0.089404     0.018306     0.017676

Vibrational entropy computed according to the QRRHO of S. Grimme
Chem.Eur.J. 2012 18 9955

-------
ENTROPY
-------

The entropy contributions are T*S = T*(S(el)+S(vib)+S(rot)+S(trans))
     S(el)   - electronic entropy
     S(vib)  - vibrational entropy
     S(rot)  - rotational entropy

                             ****ORCA TERMINATED NORMALLY****
TOTAL RUN TIME: 0 days 0 hours 18 minutes 11 seconds 422 msec
