                         Program Version 5.0.3 -  RELEASE  -
|  1> ! Opt FREQ wB97X D4 Def2-SVP SlowConv TightSCF DEFGRID2 Def2/J RIJCOSX
|  2> %MAXCORE 4000
|  3> %scf MaxIter 20000 end
|  4> %geom
|  5> MaxIter 500
|  6> end
|  7> %PAL NPROCS 8 END
|  8>
|  9> * xyz 1 1
| 10> C 0.07788 0.71372 -1.70605
| 11> C 0.14158 -0.63915 -1.73027
| 12> C 0.33016 -0.0844 0.34049
| 13> H -0.06425 1.39299 -2.54765
| 14> H 0.11014 -1.27558 -2.69428
| 15> H 0.54927 -0.12377 1.42819
| 16> N 0.16624 1.05009 -0.40292
| 17> N 0.33489 -1.09673 -0.50948
| 18> C 0.02367 2.41594 0.1569
| 19> C -1.25941 2.82841 0.67951
| 20> C 1.11803 3.2368 -0.00831
| 21> C -1.28605 4.11594 1.22706
| 22> C 1.04609 4.56231 0.50559
| 23> C -0.08092 4.96352 1.23266
| 24> H -2.14681 4.46273 1.77239
| 25> H 1.9337 5.18207 0.39878
| 26> H 0.00219 5.89296 1.7728
| 27> C 0.15962 -2.45706 -0.07782
| 28> C -1.17474 -2.72701 0.23273
| 29> C 1.21927 -3.3374 -0.1996
| 30> C -1.42864 -4.02072 0.70847
| 31> C 0.93858 -4.60065 0.32847
| 32> C -0.3657 -4.91827 0.80062
| 33> H -2.35644 -4.41914 1.0995
| 34> H 1.70939 -5.29742 0.4651
| 35> H -0.5255 -5.91036 1.23695
| 36> C 2.39964 2.80451 -0.76128
| 37> H 2.55445 1.7455 -0.49881
| 38> H 2.30495 2.87555 -1.85534
| 39> H 3.20809 3.36661 -0.44223
| 40> C 2.48453 -2.9493 -0.88283
| 41> H 3.33508 -3.21617 -0.28646
| 42> H 2.6362 -3.43068 -1.85879
| 43> H 2.65798 -1.90488 -1.05487
| 44> C -2.46257 1.97043 0.45232
| 45> H -2.33608 1.01089 0.94298
| 46> H -3.3923 2.32525 0.92631
| 47> H -2.60418 1.79788 -0.63176
| 48> C -2.40518 -1.76643 0.23968
| 49> H -2.74255 -1.18994 1.12693
| 50> H -2.28691 -1.07405 -0.60665
| 51> H -3.24265 -2.29866 -0.14543
| 52> **                         ****END OF INPUT****
 Total Charge           Charge          ....    1
 Multiplicity           Mult            ....    1
 Number of Electrons    NEL             ....  148
Dispersion correction           -0.009539891
FINAL SINGLE POINT ENERGY      -845.108688112077
Dispersion correction            ... Starting D4
Dispersion correction           -0.009485592
FINAL SINGLE POINT ENERGY      -845.143857369525
Dispersion correction            ... Starting D4
Dispersion correction           -0.009478979
FINAL SINGLE POINT ENERGY      -845.160032685259
Dispersion correction            ... Starting D4
FINAL SINGLE POINT ENERGY      -845.167236651313
FINAL SINGLE POINT ENERGY      -845.170820987007
FINAL SINGLE POINT ENERGY      -845.172236546679
FINAL SINGLE POINT ENERGY      -845.172572258811
FINAL SINGLE POINT ENERGY      -845.172789232455
FINAL SINGLE POINT ENERGY      -845.172888662489
FINAL SINGLE POINT ENERGY      -845.172925698690
FINAL SINGLE POINT ENERGY      -845.173561695680
FINAL SINGLE POINT ENERGY      -845.173574932898
FINAL SINGLE POINT ENERGY      -845.173600364309
FINAL SINGLE POINT ENERGY      -845.173610045095
FINAL SINGLE POINT ENERGY      -845.173611733050
FINAL SINGLE POINT ENERGY      -845.173618124357
FINAL SINGLE POINT ENERGY      -845.173620108803
Dispersion correction           -0.009474294
FINAL SINGLE POINT ENERGY      -845.173637599082
Dispersion correction            ... Starting D4
Dispersion correction           -0.009474577
FINAL SINGLE POINT ENERGY      -845.173641369091
Dispersion correction            ... Starting D4
                    ***********************HURRAY********************

CARTESIAN COORDINATES (ANGSTROEM)
---------------------------------
  C     -0.335215    0.747739   -1.800976
  C     -0.344541   -0.612830   -1.850076
  C      0.009611   -0.009776    0.237384
  H     -0.465070    1.496765   -2.579808
  H     -0.488867   -1.302762   -2.679270
  H      0.193424   -0.049752    1.311244
  N     -0.112623    1.101805   -0.485682
  N     -0.126592   -1.064038   -0.564110
  C     -0.009054    2.450049    0.028952
  C     -1.194090    3.127335    0.346861
  C      1.271041    3.002194    0.171269
  C     -1.065121    4.427656    0.839531
  C      1.345307    4.306366    0.665522
  C      0.190250    5.009618    0.996152
  H     -1.964880    4.990179    1.102371
  H      2.325307    4.775389    0.787323
  H      0.269136    6.029324    1.381286
  C     -0.049909   -2.448522   -0.151185
  C     -1.209812   -3.056073    0.346114
  C      1.182344   -3.103535   -0.284602
  C     -1.107795   -4.397852    0.722102
  C      1.231918   -4.442429    0.107123
  C      0.098434   -5.082043    0.602651
  H     -1.990964   -4.910019    1.113038
  H      2.175211   -4.988385    0.021823
  H      0.156992   -6.131746    0.901176
  C      2.512136    2.222910   -0.180324
  H      2.717653    1.435774    0.564170
  H      2.430589    1.737557   -1.165600
  H      3.389908    2.881696   -0.203629
  C      2.396753   -2.393750   -0.823755
  H      3.275039   -3.051559   -0.797716
  H      2.251934   -2.074987   -1.868390
  H      2.638649   -1.494312   -0.234264
  C     -2.545080    2.486386    0.161142
  H     -2.616900    1.519188    0.684311
  H     -3.338453    3.135932    0.552584
  H     -2.763726    2.302686   -0.903011
  C     -2.503775   -2.297332    0.490827
  H     -2.474546   -1.621506    1.361834
  H     -2.732024   -1.688022   -0.397502
  H     -3.341861   -2.988987    0.646711

 Multiplicity           Mult            ....    1
 Number of Electrons    NEL             ....  148
 Basis Dimension        Dim             ....  399

ORBITAL ENERGIES
----------------

  NO   OCC          E(Eh)            E(eV)
   0   2.0000     -14.652081      -398.7034
   1   2.0000     -14.652046      -398.7024
   2   2.0000     -10.526926      -286.4522
   3   2.0000     -10.475606      -285.0557
   4   2.0000     -10.475015      -285.0397
   5   2.0000     -10.447117      -284.2805
   6   2.0000     -10.447029      -284.2781
   7   2.0000     -10.415973      -283.4330
   8   2.0000     -10.415949      -283.4324
   9   2.0000     -10.415621      -283.4235
  10   2.0000     -10.415503      -283.4203
  11   2.0000     -10.395500      -282.8759
  12   2.0000     -10.394990      -282.8621
  13   2.0000     -10.394659      -282.8530
  14   2.0000     -10.394275      -282.8426
  15   2.0000     -10.394240      -282.8417
  16   2.0000     -10.394223      -282.8412
  17   2.0000     -10.391128      -282.7570
  18   2.0000     -10.391047      -282.7548
  19   2.0000     -10.391040      -282.7546
  20   2.0000     -10.391025      -282.7542
  21   2.0000      -1.356848       -36.9217
  22   2.0000      -1.237539       -33.6752
  23   2.0000      -1.129440       -30.7336
  24   2.0000      -1.108654       -30.1680
  25   2.0000      -1.066898       -29.0318
  26   2.0000      -1.038144       -28.2493
  27   2.0000      -1.037639       -28.2356
  28   2.0000      -1.029244       -28.0072
  29   2.0000      -1.001700       -27.2576
  30   2.0000      -0.966668       -26.3044
  31   2.0000      -0.946220       -25.7480
  32   2.0000      -0.923138       -25.1199
  33   2.0000      -0.921869       -25.0853
  34   2.0000      -0.912792       -24.8383
  35   2.0000      -0.901447       -24.5296
  36   2.0000      -0.867464       -23.6049
  37   2.0000      -0.842980       -22.9387
  38   2.0000      -0.829859       -22.5816
  39   2.0000      -0.825091       -22.4519
  40   2.0000      -0.796696       -21.6792
  41   2.0000      -0.764666       -20.8076
  42   2.0000      -0.762321       -20.7438
  43   2.0000      -0.737128       -20.0583
  44   2.0000      -0.724270       -19.7084
  45   2.0000      -0.721505       -19.6331
  46   2.0000      -0.719086       -19.5673
  47   2.0000      -0.694741       -18.9049
  48   2.0000      -0.694034       -18.8856
  49   2.0000      -0.692138       -18.8340
  50   2.0000      -0.662743       -18.0341
  51   2.0000      -0.661096       -17.9893
  52   2.0000      -0.652035       -17.7428
  53   2.0000      -0.650405       -17.6984
  54   2.0000      -0.648193       -17.6382
  55   2.0000      -0.645258       -17.5584
  56   2.0000      -0.636413       -17.3177
  57   2.0000      -0.636120       -17.3097
  58   2.0000      -0.630812       -17.1653
  59   2.0000      -0.628418       -17.1001
  60   2.0000      -0.601944       -16.3797
  61   2.0000      -0.599275       -16.3071
  62   2.0000      -0.595658       -16.2087
  63   2.0000      -0.583548       -15.8791
  64   2.0000      -0.581527       -15.8242
  65   2.0000      -0.572075       -15.5670
  66   2.0000      -0.569588       -15.4993
  67   2.0000      -0.568460       -15.4686
  68   2.0000      -0.551681       -15.0120
  69   2.0000      -0.515357       -14.0236
  70   2.0000      -0.474559       -12.9134
  71   2.0000      -0.471215       -12.8224
  72   2.0000      -0.457000       -12.4356
  73   2.0000      -0.456408       -12.4195
  74   0.0000      -0.085852        -2.3362
  75   0.0000      -0.065039        -1.7698
  76   0.0000      -0.056912        -1.5487
  77   0.0000      -0.049716        -1.3528
  78   0.0000      -0.046308        -1.2601

MULLIKEN ATOMIC CHARGES
-----------------------
   0 C :    0.083133
   1 C :    0.083776
   2 C :    0.228373
   3 H :    0.100610
   4 H :    0.100612
   5 H :    0.119471
   6 N :   -0.175883
   7 N :   -0.175989
   8 C :   -0.018169
   9 C :   -0.072466
  10 C :   -0.072022
  11 C :   -0.060979
  12 C :   -0.059475
  13 C :    0.043070
  14 H :    0.032953
  15 H :    0.032810
  16 H :    0.050384
  17 C :   -0.018865
  18 C :   -0.071842
  19 C :   -0.071657
  20 C :   -0.058449
  21 C :   -0.061254
  22 C :    0.042549
  23 H :    0.032672
  24 H :    0.032931
  25 H :    0.050530
  26 C :    0.057870
  27 H :    0.054994
  28 H :    0.043811
  29 H :    0.063197
  30 C :    0.065255
  31 H :    0.060979
  32 H :    0.057557
  33 H :    0.037674
  34 C :    0.065951
  35 H :    0.036684
  36 H :    0.060770
  37 H :    0.059009
  38 C :    0.056186
  39 H :    0.058057
  40 H :    0.041282
  41 H :    0.063900
Sum of atomic charges:    1.0000000

LOEWDIN ATOMIC CHARGES
----------------------
   0 C :    0.026837
   1 C :    0.026634
   2 C :    0.123621
   3 H :    0.060997
   4 H :    0.061058
   5 H :    0.063793
   6 N :    0.117130
   7 N :    0.117334
   8 C :   -0.024623
   9 C :   -0.017840
  10 C :   -0.018245
  11 C :   -0.019079
  12 C :   -0.019176
  13 C :    0.013015
  14 H :    0.043648
  15 H :    0.043667
  16 H :    0.049338
  17 C :   -0.024784
  18 C :   -0.017954
  19 C :   -0.018126
  20 C :   -0.018912
  21 C :   -0.019189
  22 C :    0.012967
  23 H :    0.043637
  24 H :    0.043639
  25 H :    0.049367
  26 C :   -0.051348
  27 H :    0.039911
  28 H :    0.035659
  29 H :    0.050350
  30 C :   -0.049961
  31 H :    0.049415
  32 H :    0.041441
  33 H :    0.034440
  34 C :   -0.049709
  35 H :    0.033977
  36 H :    0.049304
  37 H :    0.042466
  38 C :   -0.051488
  39 H :    0.041980
  40 H :    0.034341
  41 H :    0.050466

  Mayer bond orders larger than 0.100000
B(  0-C ,  1-C ) :   1.5821 B(  0-C ,  3-H ) :   0.9896 B(  0-C ,  6-N ) :   1.1620
B(  1-C ,  4-H ) :   0.9897 B(  1-C ,  7-N ) :   1.1620 B(  2-C ,  5-H ) :   0.9741
B(  2-C ,  6-N ) :   1.3416 B(  2-C ,  7-N ) :   1.3418 B(  6-N ,  8-C ) :   0.8673
B(  7-N , 17-C ) :   0.8674 B(  8-C ,  9-C ) :   1.4168 B(  8-C , 10-C ) :   1.4194
B(  9-C , 11-C ) :   1.4092 B(  9-C , 34-C ) :   1.0417 B( 10-C , 12-C ) :   1.4067
B( 10-C , 26-C ) :   1.0422 B( 11-C , 13-C ) :   1.3906 B( 11-C , 14-H ) :   0.9888
B( 12-C , 13-C ) :   1.3929 B( 12-C , 15-H ) :   0.9892 B( 13-C , 16-H ) :   0.9888
B( 17-C , 18-C ) :   1.4225 B( 17-C , 19-C ) :   1.4139 B( 18-C , 20-C ) :   1.4036
B( 18-C , 38-C ) :   1.0431 B( 19-C , 21-C ) :   1.4118 B( 19-C , 30-C ) :   1.0413
B( 20-C , 22-C ) :   1.3948 B( 20-C , 23-H ) :   0.9895 B( 21-C , 22-C ) :   1.3884
B( 21-C , 24-H ) :   0.9890 B( 22-C , 25-H ) :   0.9889 B( 26-C , 27-H ) :   0.9552
B( 26-C , 28-H ) :   0.9604 B( 26-C , 29-H ) :   0.9546 B( 30-C , 31-H ) :   0.9556
B( 30-C , 32-H ) :   0.9548 B( 30-C , 33-H ) :   0.9593 B( 34-C , 35-H ) :   0.9597
B( 34-C , 36-H ) :   0.9558 B( 34-C , 37-H ) :   0.9550 B( 38-C , 39-H ) :   0.9560
B( 38-C , 40-H ) :   0.9605 B( 38-C , 41-H ) :   0.9548

Dispersion correction           -0.009474770
FINAL SINGLE POINT ENERGY      -845.173642629159

DIPOLE MOMENT
-------------
                                X             Y             Z
Electronic contribution:     -0.11370      -0.00065      -0.54097
Nuclear contribution   :      0.03858       0.01927       0.15820
                        -----------------------------------------
Total Dipole Moment    :     -0.07512       0.01862      -0.38277
                        -----------------------------------------
Magnitude (a.u.)       :      0.39052
Magnitude (Debye)      :      0.99262

Dispersion correction in the Hessian             ... Starting D4

VIBRATIONAL FREQUENCIES
-----------------------

Scaling factor for frequencies =  1.000000000  (already applied!)

   0:         0.00 cm**-1
   1:         0.00 cm**-1
   2:         0.00 cm**-1
   3:         0.00 cm**-1
   4:         0.00 cm**-1
   5:         0.00 cm**-1
   6:         3.20 cm**-1
   7:        19.40 cm**-1
   8:        53.31 cm**-1
   9:        71.53 cm**-1
  10:        84.56 cm**-1
  11:        89.42 cm**-1
  12:       103.87 cm**-1
  13:       114.71 cm**-1
  14:       122.79 cm**-1
  15:       140.06 cm**-1
  16:       150.86 cm**-1
  17:       197.96 cm**-1
  18:       207.98 cm**-1
  19:       230.74 cm**-1
  20:       234.69 cm**-1
  21:       280.97 cm**-1
  22:       301.84 cm**-1
  23:       332.26 cm**-1
  24:       354.47 cm**-1
  25:       362.70 cm**-1
  26:       392.96 cm**-1
  27:       425.49 cm**-1
  28:       480.14 cm**-1
  29:       492.67 cm**-1
  30:       533.69 cm**-1
  31:       533.92 cm**-1
  32:       541.75 cm**-1
  33:       546.41 cm**-1
  34:       562.12 cm**-1
  35:       589.82 cm**-1
  36:       592.50 cm**-1
  37:       617.59 cm**-1
  38:       699.64 cm**-1
  39:       701.54 cm**-1
  40:       766.33 cm**-1
  41:       769.40 cm**-1
  42:       773.22 cm**-1
  43:       777.65 cm**-1
  44:       796.93 cm**-1
  45:       813.13 cm**-1
  46:       819.92 cm**-1
  47:       897.10 cm**-1
  48:       930.89 cm**-1
  49:       944.47 cm**-1
  50:       944.90 cm**-1
  51:       945.90 cm**-1
  52:       953.76 cm**-1
  53:       971.38 cm**-1
  54:       981.60 cm**-1
  55:      1006.39 cm**-1
  56:      1007.46 cm**-1
  57:      1044.32 cm**-1
  58:      1045.41 cm**-1
  59:      1059.49 cm**-1
  60:      1060.85 cm**-1
  61:      1061.85 cm**-1
  62:      1062.37 cm**-1
  63:      1063.56 cm**-1
  64:      1063.97 cm**-1
  65:      1083.79 cm**-1
  66:      1103.03 cm**-1
  67:      1117.72 cm**-1
  68:      1127.57 cm**-1
  69:      1151.75 cm**-1
  70:      1190.24 cm**-1
  71:      1193.40 cm**-1
  72:      1244.61 cm**-1
  73:      1265.17 cm**-1
  74:      1284.12 cm**-1
  75:      1288.03 cm**-1
  76:      1302.67 cm**-1
  77:      1310.96 cm**-1
  78:      1339.42 cm**-1
  79:      1340.39 cm**-1
  80:      1384.78 cm**-1
  81:      1406.09 cm**-1
  82:      1409.26 cm**-1
  83:      1413.35 cm**-1
  84:      1417.95 cm**-1
  85:      1432.62 cm**-1
  86:      1445.81 cm**-1
  87:      1450.11 cm**-1
  88:      1458.77 cm**-1
  89:      1463.10 cm**-1
  90:      1467.60 cm**-1
  91:      1468.58 cm**-1
  92:      1469.46 cm**-1
  93:      1470.41 cm**-1
  94:      1476.92 cm**-1
  95:      1528.48 cm**-1
  96:      1540.97 cm**-1
  97:      1541.64 cm**-1
  98:      1545.40 cm**-1
  99:      1640.50 cm**-1
 100:      1645.51 cm**-1
 101:      1696.94 cm**-1
 102:      1697.26 cm**-1
 103:      1711.80 cm**-1
 104:      1713.03 cm**-1
 105:      3066.93 cm**-1
 106:      3068.09 cm**-1
 107:      3068.86 cm**-1
 108:      3070.17 cm**-1
 109:      3152.22 cm**-1
 110:      3153.37 cm**-1
 111:      3153.59 cm**-1
 112:      3154.78 cm**-1
 113:      3195.93 cm**-1
 114:      3196.01 cm**-1
 115:      3196.95 cm**-1
 116:      3198.11 cm**-1
 117:      3221.94 cm**-1
 118:      3222.48 cm**-1
 119:      3228.40 cm**-1
 120:      3228.92 cm**-1
 121:      3241.81 cm**-1
 122:      3242.29 cm**-1
 123:      3299.18 cm**-1
 124:      3300.34 cm**-1
 125:      3319.10 cm**-1

IR SPECTRUM
-----------

 Mode   freq       eps      Int      T**2         TX        TY        TZ
       cm**-1   L/(mol*cm) km/mol    a.u.
----------------------------------------------------------------------------
  6:      3.20   0.000000    0.00  0.000000  ( 0.000000  0.000000  0.000000)
  7:     19.40   0.000038    0.19  0.000618  (-0.022310  0.006291  0.008989)
  8:     53.31   0.000020    0.10  0.000115  (-0.001344  0.001773 -0.010502)
  9:     71.53   0.000017    0.08  0.000072  (-0.002654  0.006317 -0.005055)
 10:     84.56   0.000008    0.04  0.000031  ( 0.000449  0.000344 -0.005505)
 11:     89.42   0.000007    0.04  0.000025  ( 0.001088  0.000343 -0.004883)
 12:    103.87   0.000117    0.59  0.000351  ( 0.006024 -0.003069  0.017469)
 13:    114.71   0.000136    0.69  0.000369  (-0.004793 -0.001685  0.018532)
 14:    122.79   0.000042    0.21  0.000106  (-0.002477 -0.008841 -0.004625)
 15:    140.06   0.000034    0.17  0.000076  (-0.003979  0.002034 -0.007493)
 16:    150.86   0.000052    0.26  0.000108  ( 0.006337 -0.001544  0.008075)
 17:    197.96   0.000071    0.36  0.000111  ( 0.004487  0.009430  0.001481)
 18:    207.98   0.000058    0.29  0.000086  ( 0.001100 -0.000933  0.009185)
 19:    230.74   0.000003    0.01  0.000003  (-0.001342 -0.000205 -0.001282)
 20:    234.69   0.000001    0.01  0.000001  (-0.000960 -0.000598  0.000371)
 21:    280.97   0.000000    0.00  0.000000  ( 0.000080  0.000248 -0.000048)
 22:    301.84   0.000002    0.01  0.000002  (-0.001304  0.000632 -0.000523)
 23:    332.26   0.002128   10.75  0.001999  ( 0.007067 -0.001829  0.044105)
 24:    354.47   0.000844    4.26  0.000743  ( 0.004368 -0.000891  0.026887)
 25:    362.70   0.000237    1.20  0.000204  (-0.002690  0.001009 -0.013978)
 26:    392.96   0.000058    0.29  0.000046  ( 0.003933  0.005461  0.000719)
 27:    425.49   0.000879    4.44  0.000645  ( 0.001485  0.025344  0.000665)
 28:    480.14   0.000060    0.30  0.000039  ( 0.006017 -0.001238 -0.001222)
 29:    492.67   0.000001    0.00  0.000000  ( 0.000126  0.000324 -0.000509)
 30:    533.69   0.000003    0.02  0.000002  (-0.001029 -0.000367 -0.000771)
 31:    533.92   0.000001    0.01  0.000001  (-0.000003  0.000406 -0.000663)
 32:    541.75   0.000427    2.16  0.000246  (-0.015409  0.000795  0.002785)
 33:    546.41   0.000006    0.03  0.000003  ( 0.000786 -0.000137 -0.001615)
 34:    562.12   0.000446    2.25  0.000248  (-0.002778  0.000219 -0.015490)
 35:    589.82   0.000295    1.49  0.000156  (-0.000230 -0.012491 -0.000285)
 36:    592.50   0.000021    0.10  0.000011  (-0.000151 -0.002456 -0.002182)
 37:    617.59   0.000359    1.81  0.000181  (-0.000330  0.013464  0.000187)
 38:    699.64   0.000420    2.12  0.000187  ( 0.013032  0.000310 -0.004186)
 39:    701.54   0.004833   24.42  0.002150  ( 0.045715 -0.001302 -0.007635)
 40:    766.33   0.000027    0.14  0.000011  (-0.000733 -0.000228 -0.003241)
 41:    769.40   0.000008    0.04  0.000003  (-0.000112 -0.000332 -0.001767)
 42:    773.22   0.000026    0.13  0.000010  ( 0.000433 -0.002295  0.002223)
 43:    777.65   0.000035    0.18  0.000014  ( 0.000266  0.003452  0.001407)
 44:    796.93   0.004733   23.92  0.001853  (-0.042446  0.000499  0.007171)
 45:    813.13   0.006426   32.48  0.002466  ( 0.013734  0.013213  0.045860)
 46:    819.92   0.006111   30.88  0.002326  (-0.001050  0.017888 -0.044774)
 47:    897.10   0.002327   11.76  0.000810  ( 0.027933  0.001567 -0.005190)
 48:    930.89   0.000025    0.13  0.000008  ( 0.002652  0.000123 -0.001175)
 49:    944.47   0.000037    0.19  0.000012  (-0.002979 -0.000264 -0.001833)
 50:    944.90   0.000101    0.51  0.000033  ( 0.005083 -0.002014 -0.001824)
 51:    945.90   0.000162    0.82  0.000053  (-0.006918 -0.000729  0.002217)
 52:    953.76   0.000012    0.06  0.000004  ( 0.000499 -0.001902 -0.000255)
 53:    971.38   0.002021   10.21  0.000649  ( 0.001204  0.025443  0.000739)
 54:    981.60   0.000025    0.13  0.000008  ( 0.000527  0.000678  0.002674)
 55:   1006.39   0.000907    4.58  0.000281  ( 0.001579  0.016683 -0.000527)
 56:   1007.46   0.000182    0.92  0.000056  ( 0.000924  0.001002  0.007388)
 57:   1044.32   0.000387    1.96  0.000116  (-0.005045  0.002840 -0.009069)
 58:   1045.41   0.000335    1.69  0.000100  (-0.000411  0.002008  0.009792)
 59:   1059.49   0.000089    0.45  0.000026  (-0.002898  0.002695  0.003252)
 60:   1060.85   0.000065    0.33  0.000019  ( 0.004011 -0.001749  0.000337)
 61:   1061.85   0.000182    0.92  0.000053  ( 0.005295 -0.003006 -0.004051)
 62:   1062.37   0.000029    0.15  0.000009  (-0.000759 -0.002227 -0.001745)
 63:   1063.56   0.000328    1.66  0.000096  (-0.005047  0.006891 -0.004811)
 64:   1063.97   0.001874    9.47  0.000550  ( 0.003057  0.000249  0.023241)
 65:   1083.79   0.005771   29.17  0.001662  ( 0.000629 -0.040748  0.000966)
 66:   1103.03   0.002144   10.84  0.000607  ( 0.004023 -0.000020  0.024299)
 67:   1117.72   0.000954    4.82  0.000266  (-0.002518 -0.006163 -0.014896)
 68:   1127.57   0.004981   25.17  0.001379  ( 0.000473  0.037123  0.000468)
 69:   1151.75   0.000280    1.42  0.000076  ( 0.001792  0.003453  0.007802)
 70:   1190.24   0.000865    4.37  0.000227  (-0.014491 -0.000513  0.004054)
 71:   1193.40   0.000915    4.62  0.000239  (-0.015398  0.000147  0.001463)
 72:   1244.61   0.011062   55.90  0.002774  (-0.000723 -0.052639 -0.001471)
 73:   1265.17   0.002568   12.98  0.000633  (-0.000490 -0.025129 -0.001301)
 74:   1284.12   0.000017    0.09  0.000004  ( 0.001952  0.000527 -0.000217)
 75:   1288.03   0.000003    0.02  0.000001  ( 0.000440  0.000685 -0.000377)
 76:   1302.67   0.000102    0.52  0.000025  (-0.000220  0.000014 -0.004945)
 77:   1310.96   0.000199    1.00  0.000047  ( 0.001450 -0.006706 -0.000457)
 78:   1339.42   0.000033    0.16  0.000008  (-0.001684 -0.001349  0.001717)
 79:   1340.39   0.003963   20.03  0.000923  (-0.030004  0.000519  0.004699)
 80:   1384.78   0.000391    1.98  0.000088  (-0.001699 -0.000070 -0.009230)
 81:   1406.09   0.000076    0.39  0.000017  ( 0.003094 -0.000656  0.002629)
 82:   1409.26   0.000275    1.39  0.000061  (-0.006780 -0.000592  0.003811)
 83:   1413.35   0.000172    0.87  0.000038  ( 0.001598 -0.005960 -0.000012)
 84:   1417.95   0.000040    0.20  0.000009  ( 0.000359 -0.000488 -0.002920)
 85:   1432.62   0.000238    1.20  0.000052  ( 0.001180  0.007089 -0.000351)
 86:   1445.81   0.000405    2.05  0.000088  ( 0.000122 -0.000496  0.009341)
 87:   1450.11   0.002710   13.69  0.000583  ( 0.002789 -0.023965 -0.001005)
 88:   1458.77   0.000106    0.53  0.000023  (-0.001896 -0.001080 -0.004222)
 89:   1463.10   0.006481   32.75  0.001382  ( 0.036145 -0.005528 -0.006740)
 90:   1467.60   0.005479   27.69  0.001165  (-0.002068  0.005579 -0.033609)
 91:   1468.58   0.001775    8.97  0.000377  (-0.009485 -0.012165 -0.011798)
 92:   1469.46   0.002226   11.25  0.000473  ( 0.009577  0.013437  0.014161)
 93:   1470.41   0.003642   18.41  0.000773  ( 0.000413 -0.009683  0.026058)
 94:   1476.92   0.000843    4.26  0.000178  ( 0.004499 -0.000668  0.012547)
 95:   1528.48   0.008415   42.52  0.001718  ( 0.002250  0.041381  0.000713)
 96:   1540.97   0.000885    4.47  0.000179  (-0.011290  0.002027  0.006900)
 97:   1541.64   0.006187   31.27  0.001252  (-0.034692  0.003278  0.006178)
 98:   1545.40   0.001887    9.53  0.000381  (-0.007390 -0.000080 -0.018065)
 99:   1640.50   0.001389    7.02  0.000264  ( 0.002626 -0.003922  0.015555)
100:   1645.51   0.031633  159.86  0.005999  ( 0.000574  0.077376  0.003424)
101:   1696.94   0.001288    6.51  0.000237  (-0.000611  0.014957 -0.003565)
102:   1697.26   0.001569    7.93  0.000288  ( 0.001147  0.016250  0.004803)
103:   1711.80   0.000062    0.31  0.000011  (-0.003290  0.000184 -0.000653)
104:   1713.03   0.001627    8.22  0.000296  (-0.016931  0.000506  0.003076)
105:   3066.93   0.002311   11.68  0.000235  ( 0.011048 -0.010079 -0.003384)
106:   3068.09   0.001481    7.49  0.000151  (-0.012158  0.001353  0.001009)
107:   3068.86   0.002141   10.82  0.000218  (-0.002339 -0.014297  0.002795)
108:   3070.17   0.003168   16.01  0.000322  (-0.005692 -0.016922 -0.001797)
109:   3152.22   0.001489    7.53  0.000147  (-0.000766 -0.000279 -0.012114)
110:   3153.37   0.000460    2.33  0.000046  ( 0.002244  0.005436  0.003308)
111:   3153.59   0.002074   10.48  0.000205  ( 0.002514 -0.004334  0.013419)
112:   3154.78   0.000230    1.16  0.000023  (-0.002955 -0.003264 -0.001835)
113:   3195.93   0.000951    4.81  0.000093  ( 0.004433  0.008292 -0.002120)
114:   3196.01   0.000370    1.87  0.000036  ( 0.002889  0.004281  0.003078)
115:   3196.95   0.000823    4.16  0.000080  (-0.004210  0.007910 -0.000227)
116:   3198.11   0.000692    3.50  0.000067  ( 0.003370 -0.007292 -0.001722)
117:   3221.94   0.000001    0.00  0.000000  (-0.000013 -0.000156  0.000259)
118:   3222.48   0.000001    0.01  0.000000  ( 0.000182 -0.000087 -0.000265)
119:   3228.40   0.000236    1.19  0.000023  ( 0.004629 -0.000093 -0.001163)
120:   3228.92   0.000235    1.19  0.000023  (-0.004753  0.000106  0.000378)
121:   3241.81   0.000139    0.70  0.000013  (-0.000141  0.003596 -0.000679)
122:   3242.29   0.000123    0.62  0.000012  ( 0.000211  0.003290  0.001001)
123:   3299.18   0.006892   34.83  0.000652  (-0.004255  0.001115 -0.025150)
124:   3300.34   0.004410   22.29  0.000417  ( 0.000729  0.020388  0.000902)
125:   3319.10   0.003297   16.66  0.000310  (-0.002969  0.000399 -0.017348)

--------------------------
THERMOCHEMISTRY AT 298.15K
--------------------------

Temperature         ... 298.15 K
Pressure            ... 1.00 atm
Total Mass          ... 277.39 AMU

Throughout the following assumptions are being made:
  (1) The electronic state is orbitally nondegenerate
  (2) There are no thermally accessible electronically excited states
  (3) Hindered rotations indicated by low frequency modes are not
      treated as such but are treated as vibrations and this may
      cause some error
  (4) All equations used are the standard statistical mechanics
      equations for an ideal gas
  (5) All vibrations are strictly harmonic

freq.       3.20  E(vib)   ...       0.59
freq.      19.40  E(vib)   ...       0.57
freq.      53.31  E(vib)   ...       0.52
freq.      71.53  E(vib)   ...       0.50
freq.      84.56  E(vib)   ...       0.48
freq.      89.42  E(vib)   ...       0.47
freq.     103.87  E(vib)   ...       0.46
freq.     114.71  E(vib)   ...       0.44
freq.     122.79  E(vib)   ...       0.43
freq.     140.06  E(vib)   ...       0.41
freq.     150.86  E(vib)   ...       0.40
freq.     197.96  E(vib)   ...       0.35
freq.     207.98  E(vib)   ...       0.34
freq.     230.74  E(vib)   ...       0.32
freq.     234.69  E(vib)   ...       0.32
freq.     280.97  E(vib)   ...       0.28
freq.     301.84  E(vib)   ...       0.26
freq.     332.26  E(vib)   ...       0.24
freq.     354.47  E(vib)   ...       0.22
freq.     362.70  E(vib)   ...       0.22
freq.     392.96  E(vib)   ...       0.20
freq.     425.49  E(vib)   ...       0.18
freq.     480.14  E(vib)   ...       0.15
freq.     492.67  E(vib)   ...       0.14
freq.     533.69  E(vib)   ...       0.13
freq.     533.92  E(vib)   ...       0.13
freq.     541.75  E(vib)   ...       0.12
freq.     546.41  E(vib)   ...       0.12
freq.     562.12  E(vib)   ...       0.11
freq.     589.82  E(vib)   ...       0.10
freq.     592.50  E(vib)   ...       0.10
freq.     617.59  E(vib)   ...       0.09
freq.     699.64  E(vib)   ...       0.07
freq.     701.54  E(vib)   ...       0.07
freq.     766.33  E(vib)   ...       0.06
freq.     769.40  E(vib)   ...       0.06
freq.     773.22  E(vib)   ...       0.05
freq.     777.65  E(vib)   ...       0.05
freq.     796.93  E(vib)   ...       0.05
freq.     813.13  E(vib)   ...       0.05
freq.     819.92  E(vib)   ...       0.05
freq.     897.10  E(vib)   ...       0.03
freq.     930.89  E(vib)   ...       0.03
freq.     944.47  E(vib)   ...       0.03
freq.     944.90  E(vib)   ...       0.03
freq.     945.90  E(vib)   ...       0.03
freq.     953.76  E(vib)   ...       0.03
freq.     971.38  E(vib)   ...       0.03
freq.     981.60  E(vib)   ...       0.02
freq.    1006.39  E(vib)   ...       0.02
freq.    1007.46  E(vib)   ...       0.02
freq.    1044.32  E(vib)   ...       0.02
freq.    1045.41  E(vib)   ...       0.02
freq.    1059.49  E(vib)   ...       0.02
freq.    1060.85  E(vib)   ...       0.02
freq.    1061.85  E(vib)   ...       0.02
freq.    1062.37  E(vib)   ...       0.02
freq.    1063.56  E(vib)   ...       0.02
freq.    1063.97  E(vib)   ...       0.02
freq.    1083.79  E(vib)   ...       0.02
freq.    1103.03  E(vib)   ...       0.02
freq.    1117.72  E(vib)   ...       0.01
freq.    1127.57  E(vib)   ...       0.01
freq.    1151.75  E(vib)   ...       0.01
freq.    1190.24  E(vib)   ...       0.01
freq.    1193.40  E(vib)   ...       0.01
freq.    1244.61  E(vib)   ...       0.01
freq.    1265.17  E(vib)   ...       0.01
freq.    1284.12  E(vib)   ...       0.01
freq.    1288.03  E(vib)   ...       0.01
freq.    1302.67  E(vib)   ...       0.01
freq.    1310.96  E(vib)   ...       0.01
freq.    1339.42  E(vib)   ...       0.01
freq.    1340.39  E(vib)   ...       0.01
freq.    1384.78  E(vib)   ...       0.00
freq.    1406.09  E(vib)   ...       0.00
freq.    1409.26  E(vib)   ...       0.00
freq.    1413.35  E(vib)   ...       0.00
freq.    1417.95  E(vib)   ...       0.00
freq.    1432.62  E(vib)   ...       0.00
freq.    1445.81  E(vib)   ...       0.00
freq.    1450.11  E(vib)   ...       0.00
freq.    1458.77  E(vib)   ...       0.00
freq.    1463.10  E(vib)   ...       0.00
freq.    1467.60  E(vib)   ...       0.00
freq.    1468.58  E(vib)   ...       0.00
freq.    1469.46  E(vib)   ...       0.00
freq.    1470.41  E(vib)   ...       0.00
freq.    1476.92  E(vib)   ...       0.00
freq.    1528.48  E(vib)   ...       0.00
freq.    1540.97  E(vib)   ...       0.00
freq.    1541.64  E(vib)   ...       0.00
freq.    1545.40  E(vib)   ...       0.00
freq.    1640.50  E(vib)   ...       0.00
freq.    1645.51  E(vib)   ...       0.00
freq.    1696.94  E(vib)   ...       0.00
freq.    1697.26  E(vib)   ...       0.00
freq.    1711.80  E(vib)   ...       0.00
freq.    1713.03  E(vib)   ...       0.00
freq.    3066.93  E(vib)   ...       0.00
freq.    3068.09  E(vib)   ...       0.00
freq.    3068.86  E(vib)   ...       0.00
freq.    3070.17  E(vib)   ...       0.00
freq.    3152.22  E(vib)   ...       0.00
freq.    3153.37  E(vib)   ...       0.00
freq.    3153.59  E(vib)   ...       0.00
freq.    3154.78  E(vib)   ...       0.00
freq.    3195.93  E(vib)   ...       0.00
freq.    3196.01  E(vib)   ...       0.00
freq.    3196.95  E(vib)   ...       0.00
freq.    3198.11  E(vib)   ...       0.00
freq.    3221.94  E(vib)   ...       0.00
freq.    3222.48  E(vib)   ...       0.00
freq.    3228.40  E(vib)   ...       0.00
freq.    3228.92  E(vib)   ...       0.00
freq.    3241.81  E(vib)   ...       0.00
freq.    3242.29  E(vib)   ...       0.00
freq.    3299.18  E(vib)   ...       0.00
freq.    3300.34  E(vib)   ...       0.00
freq.    3319.10  E(vib)   ...       0.00

------------
INNER ENERGY
------------

The inner energy is: U= E(el) + E(ZPE) + E(vib) + E(rot) + E(trans)
    E(el)   - is the total energy from the electronic structure calculation
              = E(kin-el) + E(nuc-el) + E(el-el) + E(nuc-nuc)
    E(ZPE)  - the the zero temperature vibrational energy from the frequency calculation
    E(vib)  - the the finite temperature correction to E(ZPE) due to population
              of excited vibrational states
    E(rot)  - is the rotational thermal energy
    E(trans)- is the translational thermal energy

Summary of contributions to the inner energy U:
Electronic energy                ...   -845.17364263 Eh
Zero point energy                ...      0.35983311 Eh     225.80 kcal/mol
Thermal vibrational correction   ...      0.01684653 Eh      10.57 kcal/mol
Thermal rotational correction    ...      0.00141627 Eh       0.89 kcal/mol
Thermal translational correction ...      0.00141627 Eh       0.89 kcal/mol
-----------------------------------------------------------------------
Total thermal energy                   -844.79413045 Eh

Rotational constants in cm-1:     0.023189     0.005921     0.005177

                             ****ORCA TERMINATED NORMALLY****
TOTAL RUN TIME: 0 days 1 hours 19 minutes 35 seconds 747 msec
