   * xtb version 6.6.1 (8d0f1dd) compiled by 'conda@1efc2f54142f' on 2023-08-01
          program call               : xtb struc.xyz --gfn2 --ceasefiles --opt

   ID    Z sym.   atoms
    1    6 C      1, 2, 5-7, 11-14, 27, 28
    2    7 N      3, 4
    3    1 H      8-10, 15-26, 29-34

          :  Hamiltonian                  GFN2-xTB          :
 * total energy  :   -39.7390022 Eh     change       -0.3757911E-08 Eh
 * total energy  :   -39.7615917 Eh     change       -0.2258947E-01 Eh
 * total energy  :   -39.7688545 Eh     change       -0.7262796E-02 Eh
 * total energy  :   -39.7716251 Eh     change       -0.2770598E-02 Eh
 * total energy  :   -39.7733427 Eh     change       -0.1717681E-02 Eh
 * total energy  :   -39.7744253 Eh     change       -0.1082526E-02 Eh
 * total energy  :   -39.7752650 Eh     change       -0.8396842E-03 Eh
 * total energy  :   -39.7760613 Eh     change       -0.7963678E-03 Eh
 * total energy  :   -39.7765767 Eh     change       -0.5154014E-03 Eh
 * total energy  :   -39.7769182 Eh     change       -0.3414992E-03 Eh
 * total energy  :   -39.7769111 Eh     change        0.7165062E-05 Eh
 * total energy  :   -39.7770816 Eh     change       -0.1704968E-03 Eh
 * total energy  :   -39.7771844 Eh     change       -0.1028232E-03 Eh
   *** GEOMETRY OPTIMIZATION CONVERGED AFTER 13 ITERATIONS ***

 final structure:
================
34
 xtb: 6.6.1 (8d0f1dd)
C           -2.25878616081910        0.79434318365484        0.73420073431075
C            2.35152638051410       -0.40802355486338       -0.61016142785586
N           -1.11808768692894       -0.02188559585158        0.27743366978426
N            0.91801826620093       -0.55841846609634       -0.29138046926840
C           -1.11655344187954       -1.34490518700203       -0.03814616108449
C            0.15397081794013       -1.67921908298291       -0.39539068103538
C            0.12376938893298        0.42738427607789        0.11769156143565
H           -1.98775025516372       -1.96298159464388        0.00058216560375
H            0.53596380934131       -2.63012822005988       -0.70366361772124
H            0.43052328345241        1.43744073657243        0.29163852753147
C           -2.27764893908588        2.09144061663525       -0.08109087487414
C            2.94669726332893       -1.76460334769200       -0.97569632575745
C            3.05898515958685        0.15480539433096        0.62355066231900
C           -3.55456615188499        0.01636487186536        0.52080914473690
H           -3.26983335476480        2.53420162575342       -0.03462295715074
H            2.44324013004846       -2.19988162799622       -1.83815284180412
H            2.89090283591950       -0.48634009184873        1.48576229084098
H           -3.66926509500119       -0.27945975460648       -0.52058124456224
H           -1.57191969254412        2.82372718524717        0.30749186807034
H            2.90677050619054       -2.45612558857777       -0.13207547077065
H            4.12784156059305        0.19984328072064        0.43934858710239
H           -4.39742768693560        0.65177175556630        0.78298713389063
H           -2.05013302018005        1.89701625415116       -1.13031076303329
H            3.99428669766656       -1.62444145415454       -1.24355925075792
H            2.71982817868904        1.15891162449265        0.86220321200058
H           -3.59970791832118       -0.86136001472711        1.15998888958478
C           -2.05542704771096        1.08079724005007        2.22382006305682
C            2.46599908416072        0.54849500810433       -1.79939312311399
H           -1.14408515615691        1.64332268227285        2.39710703746392
H            2.09191566450402        1.53883661909703       -1.55516393520129
H           -2.89064408556753        1.66339041034290        2.59751734079119
H            1.91574333132319        0.16552287528133       -2.65618039118892
H            3.50871523851103        0.64570202985502       -2.08581851391014
H           -2.00460640075937        0.15678797803104        2.79088477776670

          :  Hamiltonian                  GFN2-xTB          :
         :: total energy             -39.777184374053 Eh    ::
         :: gradient norm              0.006978913229 Eh/a0 ::
         :: HOMO-LUMO gap              4.780215969597 eV    ::
         :: SCC energy               -40.385804730907 Eh    ::
         :: -> dispersion             -0.027910204759 Eh    ::
         :: repulsion energy           0.608341544022 Eh    ::

    * Orbital Energies and Occupations

         #    Occupation            Energy/Eh            Energy/eV
      -------------------------------------------------------------
         1        2.0000           -0.8782803             -23.8992
       ...           ...                  ...                  ...
        25        2.0000           -0.6024233             -16.3928
        26        2.0000           -0.6016749             -16.3724
        27        2.0000           -0.5972955             -16.2532
        28        2.0000           -0.5949278             -16.1888
        29        2.0000           -0.5941121             -16.1666
        30        2.0000           -0.5925789             -16.1249
        31        2.0000           -0.5902967             -16.0628
        32        2.0000           -0.5890516             -16.0289
        33        2.0000           -0.5822452             -15.8437
        34        2.0000           -0.5784830             -15.7413
        35        2.0000           -0.5779619             -15.7271
        36        2.0000           -0.5729542             -15.5909
        37        2.0000           -0.5693720             -15.4934 (HOMO)
        38                         -0.3937023             -10.7132 (LUMO)
        39                         -0.3557425              -9.6802
        40                         -0.1967823              -5.3547
        41                         -0.1499502              -4.0804
        42                         -0.0751443              -2.0448
        43                         -0.0616983              -1.6789
        44                         -0.0599136              -1.6303
        45                         -0.0491208              -1.3366
        46                         -0.0459905              -1.2515
        47                         -0.0367659              -1.0004
        48                         -0.0342292              -0.9314
       ...                                ...                  ...
        73                          0.4739086              12.8957
      -------------------------------------------------------------
                  HL-Gap            0.1756697 Eh            4.7802 eV

     #   Z          covCN         q      C6AA      α(0)
     1   6 C        3.836     0.075    19.313     6.252
     2   6 C        3.837     0.075    19.313     6.252
     3   7 N        2.869     0.047    20.410     6.710
     4   7 N        2.868     0.048    20.402     6.708
     5   6 C        3.080    -0.008    28.131     8.695
     6   6 C        3.081    -0.008    28.126     8.694
     7   6 C        3.120     0.054    26.624     8.451
     8   1 H        0.927     0.104     1.748     2.068
     9   1 H        0.927     0.104     1.747     2.067
    10   1 H        0.927     0.104     1.750     2.069
    11   6 C        3.758    -0.131    23.063     6.847
    12   6 C        3.759    -0.130    23.057     6.846
    13   6 C        3.760    -0.129    23.032     6.842
    14   6 C        3.759    -0.131    23.062     6.846
    15   1 H        0.925     0.081     1.973     2.196
    16   1 H        0.925     0.061     2.184     2.311
    17   1 H        0.925     0.059     2.208     2.324
    18   1 H        0.925     0.062     2.178     2.308
    19   1 H        0.925     0.059     2.214     2.327
    20   1 H        0.924     0.062     2.173     2.305
    21   1 H        0.925     0.081     1.971     2.195
    22   1 H        0.925     0.079     1.994     2.208
    23   1 H        0.924     0.055     2.256     2.349
    24   1 H        0.924     0.079     1.989     2.206
    25   1 H        0.925     0.054     2.267     2.355
    26   1 H        0.925     0.062     2.172     2.305
    27   6 C        3.760    -0.128    23.004     6.837
    28   6 C        3.760    -0.129    23.018     6.840
    29   1 H        0.925     0.054     2.272     2.357
    30   1 H        0.925     0.054     2.267     2.354
    31   1 H        0.925     0.082     1.963     2.191
    32   1 H        0.925     0.059     2.209     2.324
    33   1 H        0.925     0.080     1.975     2.197
    34   1 H        0.925     0.060     2.199     2.319

molecular dipole:
                 x           y           z       tot (Debye)
 q only:       -0.077      -0.164       0.031
   full:       -0.072      -0.148       0.034       0.428

           -------------------------------------------------
          | TOTAL ENERGY              -39.777184374053 Eh   |
          | GRADIENT NORM               0.006978913229 Eh/α |
          | HOMO-LUMO GAP               4.780215969597 eV   |
           -------------------------------------------------

 * finished run on 2024/02/12 at 14:13:52.130
