   * xtb version 6.6.1 (8d0f1dd) compiled by 'conda@1efc2f54142f' on 2023-08-01
          program call               : xtb struc.xyz --gfn2 --ceasefiles --opt

   ID    Z sym.   atoms
    1    6 C      1, 2, 5-7, 11-14, 27, 28
    2    7 N      3, 4
    3    1 H      8-10, 15-26, 29-34

          :  Hamiltonian                  GFN2-xTB          :
 * total energy  :   -39.7399072 Eh     change       -0.3055973E-08 Eh
 * total energy  :   -39.7611031 Eh     change       -0.2119596E-01 Eh
 * total energy  :   -39.7682461 Eh     change       -0.7142986E-02 Eh
 * total energy  :   -39.7714874 Eh     change       -0.3241256E-02 Eh
 * total energy  :   -39.7734789 Eh     change       -0.1991556E-02 Eh
 * total energy  :   -39.7747869 Eh     change       -0.1307995E-02 Eh
 * total energy  :   -39.7757665 Eh     change       -0.9795348E-03 Eh
 * total energy  :   -39.7766239 Eh     change       -0.8574326E-03 Eh
 * total energy  :   -39.7772532 Eh     change       -0.6292677E-03 Eh
 * total energy  :   -39.7776064 Eh     change       -0.3532136E-03 Eh
   *** GEOMETRY OPTIMIZATION CONVERGED AFTER 10 ITERATIONS ***

 final structure:
================
34
 xtb: 6.6.1 (8d0f1dd)
C           -2.20290430740598        0.15987068273754        1.16378130432902
C            2.31925201414218       -0.30804179641083       -0.82542335771520
N           -1.08046185778397        0.24944223923397        0.21259021737697
N            0.89293174741085        0.05274084904307       -0.69766549388116
C           -1.07046624138663        1.00792303183622       -0.91929862628190
C            0.16032043956234        0.88485149010211       -1.48626383640251
C            0.11691855510671       -0.31486767586461        0.31983913403649
H           -1.90743076230317        1.58637144891103       -1.24930431227541
H            0.53134712406272        1.33085706988052       -2.38460162952104
H            0.41604392716925       -0.97634860397814        1.10489210476177
C           -1.89718270955309       -0.88704738111820        2.23105223088245
C            2.82932349885338        0.08859135062972       -2.20642996344822
C            2.46454105690050       -1.81735128153261       -0.63160283518103
C           -2.35019666998283        1.54002456202228        1.80979125179812
H           -0.99546606431561       -0.63579793911985        2.79140814067552
H            2.79626084117841        1.16444902588984       -2.35187998643016
H            1.83952761599719       -2.36079672940456       -1.33782814584747
H           -1.40572319387676        1.85385450326516        2.24797333007135
H           -2.72175867159677       -0.91121383152223        2.94562403543442
H            2.26078018659789       -0.40401425999503       -2.99025840443524
H            3.49988854408214       -2.10440495471176       -0.80526535843052
H           -3.09240185787520        1.50290521813821        2.60061466685498
H           -1.79909274075354       -1.88279041544083        1.79216395731746
H            3.86716721171397       -0.21988659253912       -2.30071722019860
H            2.20484287159476       -2.12914151476543        0.37682117681746
H           -2.65934654921969        2.28754508325309        1.08835000242349
C           -3.46231722537602       -0.23311231305824        0.39213604860430
C            3.06981834630485        0.46812568864591        0.26058919884219
H           -4.30243318753875       -0.29195763297231        1.07521459687379
H            2.76558468509611        0.15699778885737        1.25525841614512
H           -3.70646071292888        0.49453113673336       -0.37429120018228
H            2.89294948411952        1.53427770349717        0.15636068812903
H            4.13912321105295        0.29214461507945        0.17055898875479
H           -3.33551409874869       -1.20892484912226       -0.07297979559846

          :  Hamiltonian                  GFN2-xTB          :
         :: total energy             -39.777606372004 Eh    ::
         :: gradient norm              0.008362936860 Eh/a0 ::
         :: HOMO-LUMO gap              4.811679583503 eV    ::
         :: SCC energy               -40.387547979699 Eh    ::
         :: -> dispersion             -0.027909836496 Eh    ::
         :: repulsion energy           0.609661928545 Eh    ::

    * Orbital Energies and Occupations

         #    Occupation            Energy/Eh            Energy/eV
      -------------------------------------------------------------
         1        2.0000           -0.8782668             -23.8989
       ...           ...                  ...                  ...
        25        2.0000           -0.6011123             -16.3571
        26        2.0000           -0.5998513             -16.3228
        27        2.0000           -0.5985563             -16.2875
        28        2.0000           -0.5956558             -16.2086
        29        2.0000           -0.5933719             -16.1465
        30        2.0000           -0.5919002             -16.1064
        31        2.0000           -0.5904838             -16.0679
        32        2.0000           -0.5902787             -16.0623
        33        2.0000           -0.5817009             -15.8289
        34        2.0000           -0.5785184             -15.7423
        35        2.0000           -0.5780313             -15.7290
        36        2.0000           -0.5741875             -15.6244
        37        2.0000           -0.5697935             -15.5049 (HOMO)
        38                         -0.3929675             -10.6932 (LUMO)
        39                         -0.3566452              -9.7048
        40                         -0.1970722              -5.3626
        41                         -0.1493542              -4.0641
        42                         -0.0735736              -2.0020
        43                         -0.0604078              -1.6438
        44                         -0.0585376              -1.5929
        45                         -0.0563051              -1.5321
        46                         -0.0414981              -1.1292
        47                         -0.0373532              -1.0164
        48                         -0.0307984              -0.8381
       ...                                ...                  ...
        73                          0.4732637              12.8782
      -------------------------------------------------------------
                  HL-Gap            0.1768260 Eh            4.8117 eV

     #   Z          covCN         q      C6AA      α(0)
     1   6 C        3.836     0.075    19.303     6.251
     2   6 C        3.837     0.075    19.303     6.250
     3   7 N        2.867     0.048    20.394     6.707
     4   7 N        2.869     0.046    20.443     6.715
     5   6 C        3.085    -0.006    28.074     8.686
     6   6 C        3.079    -0.006    28.090     8.689
     7   6 C        3.122     0.052    26.665     8.457
     8   1 H        0.927     0.099     1.798     2.097
     9   1 H        0.927     0.104     1.753     2.070
    10   1 H        0.927     0.108     1.715     2.048
    11   6 C        3.758    -0.132    23.083     6.850
    12   6 C        3.760    -0.131    23.064     6.846
    13   6 C        3.759    -0.130    23.050     6.845
    14   6 C        3.761    -0.128    22.999     6.837
    15   1 H        0.924     0.055     2.259     2.351
    16   1 H        0.925     0.062     2.178     2.308
    17   1 H        0.925     0.060     2.199     2.319
    18   1 H        0.925     0.055     2.258     2.350
    19   1 H        0.924     0.082     1.964     2.191
    20   1 H        0.925     0.062     2.171     2.304
    21   1 H        0.925     0.081     1.972     2.196
    22   1 H        0.925     0.080     1.982     2.201
    23   1 H        0.924     0.059     2.212     2.326
    24   1 H        0.925     0.079     1.988     2.205
    25   1 H        0.925     0.054     2.267     2.355
    26   1 H        0.925     0.062     2.176     2.307
    27   6 C        3.760    -0.129    23.025     6.841
    28   6 C        3.760    -0.128    23.003     6.837
    29   1 H        0.925     0.080     1.979     2.200
    30   1 H        0.925     0.054     2.272     2.357
    31   1 H        0.925     0.061     2.188     2.313
    32   1 H        0.925     0.058     2.217     2.329
    33   1 H        0.925     0.080     1.974     2.197
    34   1 H        0.925     0.060     2.204     2.322

molecular dipole:
                 x           y           z       tot (Debye)
 q only:       -0.044       0.155      -0.086
   full:       -0.039       0.151      -0.074       0.439

           -------------------------------------------------
          | TOTAL ENERGY              -39.777606372004 Eh   |
          | GRADIENT NORM               0.008362936860 Eh/α |
          | HOMO-LUMO GAP               4.811679583503 eV   |
           -------------------------------------------------

 * finished run on 2024/02/12 at 14:13:52.426
