                         Program Version 5.0.4 -  RELEASE  -
|  1> ! Opt FREQ wB97X D4 Def2-SVP SlowConv TightSCF DEFGRID2 Def2/J RIJCOSX CPCM(Water)
|  2>
|  3> %MAXCORE 4000
|  4>
|  5> %scf MaxIter 20000 end
|  6>
|  7> %geom
|  8> MaxIter 500
|  9> end
| 10>
| 11> %PAL NPROCS 8 END
| 12>
| 13> * xyz 1 1
| 14> C 1.05989 -0.18925 -1.34547
| 15> C -0.15046 -0.90961 -1.46263
| 16> N 1.06734 0.36432 -0.09649
| 17> N -0.77788 -0.80863 -0.27295
| 18> C -0.0422 -0.05782 0.55156
| 19> H 1.91751 0.07823 -1.95676
| 20> H -0.52243 -1.56483 -2.24312
| 21> C 2.11326 1.18954 0.51697
| 22> C -2.08758 -1.39437 0.08325
| 23> H 3.04516 1.03928 -0.00277
| 24> H 2.18772 0.85996 1.5838
| 25> H 1.88693 2.27357 0.39478
| 26> H -0.33018 0.44057 1.47738
| 27> H -2.0482 -2.49409 -0.03373
| 28> H -2.93261 -0.99455 -0.55291
| 29> H -2.23324 -1.03338 1.13812
| 30> **                         ****END OF INPUT****
 Total Charge           Charge          ....    1
 Multiplicity           Mult            ....    1
 Number of Electrons    NEL             ....   52
Dispersion correction           -0.001649574
FINAL SINGLE POINT ENERGY      -305.000148725955
Dispersion correction            ... Starting D4
Dispersion correction           -0.001654164
FINAL SINGLE POINT ENERGY      -305.011151096705
Dispersion correction            ... Starting D4
Dispersion correction           -0.001654538
FINAL SINGLE POINT ENERGY      -305.014594753210
Dispersion correction            ... Starting D4
FINAL SINGLE POINT ENERGY      -305.015512706995
FINAL SINGLE POINT ENERGY      -305.015678920712
FINAL SINGLE POINT ENERGY      -305.015721300445
FINAL SINGLE POINT ENERGY      -305.015751278041
FINAL SINGLE POINT ENERGY      -305.015827289175
FINAL SINGLE POINT ENERGY      -305.015883416512
FINAL SINGLE POINT ENERGY      -305.015960016497
FINAL SINGLE POINT ENERGY      -305.016031443295
FINAL SINGLE POINT ENERGY      -305.016094176613
FINAL SINGLE POINT ENERGY      -305.016120700084
Dispersion correction           -0.001653121
FINAL SINGLE POINT ENERGY      -305.016126378962
Dispersion correction            ... Starting D4
Dispersion correction           -0.001653211
FINAL SINGLE POINT ENERGY      -305.016128777538
Dispersion correction            ... Starting D4
                    ***********************HURRAY********************

CARTESIAN COORDINATES (ANGSTROEM)
---------------------------------
  C      0.988145   -0.091134   -1.358138
  C     -0.163014   -0.808566   -1.468096
  N      1.051977    0.369511   -0.061240
  N     -0.779028   -0.771422   -0.236328
  C     -0.025334   -0.054895    0.593233
  H      1.764281    0.133460   -2.087116
  H     -0.599175   -1.336898   -2.313516
  C      2.124645    1.182890    0.499685
  C     -2.044727   -1.414688    0.098124
  H      3.065333    0.618716    0.470150
  H      1.873143    1.428335    1.537826
  H      2.222477    2.106490   -0.084545
  H     -0.254651    0.151644    1.638829
  H     -1.939948   -2.502144   -0.004823
  H     -2.826968   -1.048353   -0.578350
  H     -2.304128   -1.164007    1.133335

 Multiplicity           Mult            ....    1
 Number of Electrons    NEL             ....   52
 Basis Dimension        Dim             ....  143

ORBITAL ENERGIES
----------------

  NO   OCC          E(Eh)            E(eV)
   0   2.0000     -14.515392      -394.9839
   1   2.0000     -14.515373      -394.9834
   2   2.0000     -10.385866      -282.6138
   3   2.0000     -10.335558      -281.2448
   4   2.0000     -10.334978      -281.2290
   5   2.0000     -10.327869      -281.0356
   6   2.0000     -10.327769      -281.0329
   7   2.0000      -1.218558       -33.1587
   8   2.0000      -1.095034       -29.7974
   9   2.0000      -0.939100       -25.5542
  10   2.0000      -0.902179       -24.5495
  11   2.0000      -0.837706       -22.7951
  12   2.0000      -0.773538       -21.0490
  13   2.0000      -0.739745       -20.1295
  14   2.0000      -0.683822       -18.6078
  15   2.0000      -0.641450       -17.4547
  16   2.0000      -0.600532       -16.3413
  17   2.0000      -0.591232       -16.0882
  18   2.0000      -0.582207       -15.8427
  19   2.0000      -0.579754       -15.7759
  20   2.0000      -0.569070       -15.4852
  21   2.0000      -0.523445       -14.2437
  22   2.0000      -0.519320       -14.1314
  23   2.0000      -0.516964       -14.0673
  24   2.0000      -0.418960       -11.4005
  25   2.0000      -0.377741       -10.2789
  26   0.0000       0.062584         1.7030
  27   0.0000       0.090758         2.4697
  28   0.0000       0.153678         4.1818
  29   0.0000       0.161226         4.3872
  30   0.0000       0.177177         4.8212

MULLIKEN ATOMIC CHARGES
-----------------------
   0 C :    0.067534
   1 C :    0.067890
   2 N :   -0.221472
   3 N :   -0.221875
   4 C :    0.221459
   5 H :    0.105627
   6 H :    0.105538
   7 C :    0.078240
   8 C :    0.078181
   9 H :    0.097860
  10 H :    0.092664
  11 H :    0.096987
  12 H :    0.143734
  13 H :    0.097858
  14 H :    0.096960
  15 H :    0.092816
Sum of atomic charges:    1.0000000

LOEWDIN ATOMIC CHARGES
----------------------
   0 C :    0.021494
   1 C :    0.021703
   2 N :    0.092776
   3 N :    0.092606
   4 C :    0.128652
   5 H :    0.063473
   6 H :    0.063430
   7 C :    0.057965
   8 C :    0.057961
   9 H :    0.053806
  10 H :    0.055656
  11 H :    0.054021
  12 H :    0.072923
  13 H :    0.053818
  14 H :    0.054030
  15 H :    0.055687

  Mayer bond orders larger than 0.100000
B(  0-C ,  1-C ) :   1.6083 B(  0-C ,  2-N ) :   1.1715 B(  0-C ,  5-H ) :   0.9867
B(  1-C ,  3-N ) :   1.1716 B(  1-C ,  6-H ) :   0.9868 B(  2-N ,  4-C ) :   1.3597
B(  2-N ,  7-C ) :   0.8962 B(  3-N ,  4-C ) :   1.3593 B(  3-N ,  8-C ) :   0.8962
B(  4-C , 12-H ) :   0.9655 B(  7-C ,  9-H ) :   0.9741 B(  7-C , 10-H ) :   0.9720
B(  7-C , 11-H ) :   0.9739 B(  8-C , 13-H ) :   0.9741 B(  8-C , 14-H ) :   0.9739
B(  8-C , 15-H ) :   0.9720

Dispersion correction           -0.001653232
FINAL SINGLE POINT ENERGY      -305.016129175795

DIPOLE MOMENT
-------------
                                X             Y             Z
Electronic contribution:      0.29041      -0.25714      -1.33019
Nuclear contribution   :     -0.40012       0.35641       1.82539
                        -----------------------------------------
Total Dipole Moment    :     -0.10971       0.09927       0.49521
                        -----------------------------------------
Magnitude (a.u.)       :      0.51684
Magnitude (Debye)      :      1.31370

Dispersion correction in the Hessian             ... Starting D4

VIBRATIONAL FREQUENCIES
-----------------------

Scaling factor for frequencies =  1.000000000  (already applied!)

   0:         0.00 cm**-1
   1:         0.00 cm**-1
   2:         0.00 cm**-1
   3:         0.00 cm**-1
   4:         0.00 cm**-1
   5:         0.00 cm**-1
   6:        88.45 cm**-1
   7:       130.22 cm**-1
   8:       195.39 cm**-1
   9:       278.84 cm**-1
  10:       283.49 cm**-1
  11:       425.29 cm**-1
  12:       626.08 cm**-1
  13:       645.95 cm**-1
  14:       647.21 cm**-1
  15:       741.12 cm**-1
  16:       771.67 cm**-1
  17:       886.83 cm**-1
  18:       916.02 cm**-1
  19:      1051.35 cm**-1
  20:      1054.91 cm**-1
  21:      1097.52 cm**-1
  22:      1107.07 cm**-1
  23:      1121.11 cm**-1
  24:      1143.47 cm**-1
  25:      1149.33 cm**-1
  26:      1210.14 cm**-1
  27:      1285.45 cm**-1
  28:      1407.66 cm**-1
  29:      1435.47 cm**-1
  30:      1439.35 cm**-1
  31:      1446.60 cm**-1
  32:      1448.44 cm**-1
  33:      1449.75 cm**-1
  34:      1460.14 cm**-1
  35:      1499.00 cm**-1
  36:      1516.17 cm**-1
  37:      1661.76 cm**-1
  38:      1675.68 cm**-1
  39:      3103.81 cm**-1
  40:      3104.56 cm**-1
  41:      3221.65 cm**-1
  42:      3222.33 cm**-1
  43:      3237.00 cm**-1
  44:      3237.17 cm**-1
  45:      3301.96 cm**-1
  46:      3302.62 cm**-1
  47:      3320.58 cm**-1

IR SPECTRUM
-----------

 Mode   freq       eps      Int      T**2         TX        TY        TZ
       cm**-1   L/(mol*cm) km/mol    a.u.
----------------------------------------------------------------------------
  6:     88.45   0.000070    0.35  0.000248  ( 0.008587 -0.012340  0.004650)
  7:    130.22   0.000037    0.19  0.000089  (-0.004032  0.007422 -0.004202)
  8:    195.39   0.001322    6.68  0.002112  (-0.022364  0.038116 -0.012591)
  9:    278.84   0.000019    0.10  0.000021  ( 0.001813 -0.001116 -0.004116)
 10:    283.49   0.000227    1.15  0.000250  (-0.003245  0.003699  0.015011)
 11:    425.29   0.000063    0.32  0.000046  (-0.005922 -0.003310 -0.000648)
 12:    626.08   0.000235    1.19  0.000117  (-0.001501  0.000448  0.010708)
 13:    645.95   0.009636   48.70  0.004655  (-0.033554  0.056685 -0.017784)
 14:    647.21   0.000355    1.79  0.000171  ( 0.007100 -0.010350  0.003699)
 15:    741.12   0.000822    4.15  0.000346  ( 0.015806  0.009743  0.001104)
 16:    771.67   0.010440   52.76  0.004222  (-0.032319  0.053732 -0.017043)
 17:    886.83   0.005991   30.28  0.002108  ( 0.022925 -0.037764  0.012506)
 18:    916.02   0.000000    0.00  0.000000  ( 0.000143 -0.000280  0.000012)
 19:   1051.35   0.001264    6.39  0.000375  ( 0.016380  0.010266  0.001176)
 20:   1054.91   0.000840    4.25  0.000249  (-0.001037  0.004191  0.015165)
 21:   1097.52   0.003117   15.75  0.000886  (-0.009145  0.002539  0.028216)
 22:   1107.07   0.002768   13.99  0.000780  ( 0.022540  0.015312  0.006131)
 23:   1121.11   0.000036    0.18  0.000010  (-0.002728 -0.001286  0.000954)
 24:   1143.47   0.000071    0.36  0.000019  ( 0.004295  0.000352  0.000842)
 25:   1149.33   0.000301    1.52  0.000082  (-0.003511  0.008204 -0.001459)
 26:   1210.14   0.023345  117.98  0.006020  (-0.065729 -0.040854 -0.005533)
 27:   1285.45   0.000114    0.58  0.000028  (-0.004347 -0.002848 -0.000802)
 28:   1407.66   0.000014    0.07  0.000003  ( 0.000092 -0.000075  0.001750)
 29:   1435.47   0.000421    2.13  0.000092  ( 0.007116  0.005579  0.003136)
 30:   1439.35   0.003735   18.87  0.000810  ( 0.026467  0.009843  0.003517)
 31:   1446.60   0.002848   14.39  0.000614  (-0.000016  0.014191 -0.020322)
 32:   1448.44   0.000359    1.82  0.000077  (-0.003909  0.003424 -0.007102)
 33:   1449.75   0.008407   42.48  0.001810  ( 0.020681 -0.036655  0.006191)
 34:   1460.14   0.007986   40.36  0.001707  ( 0.008677 -0.010293 -0.039058)
 35:   1499.00   0.000125    0.63  0.000026  (-0.003729 -0.003138 -0.001536)
 36:   1516.17   0.001346    6.80  0.000277  (-0.003512  0.003886  0.015796)
 37:   1661.76   0.002211   11.18  0.000415  (-0.003678  0.004237  0.019591)
 38:   1675.68   0.027700  139.98  0.005159  (-0.060629 -0.037970 -0.006402)
 39:   3103.81   0.003133   15.83  0.000315  ( 0.015050  0.009373 -0.000766)
 40:   3104.56   0.001608    8.13  0.000162  ( 0.009788  0.006719  0.004546)
 41:   3221.65   0.000051    0.26  0.000005  (-0.000907  0.001917 -0.000630)
 42:   3222.33   0.000040    0.20  0.000004  ( 0.001141 -0.001525  0.000447)
 43:   3237.00   0.000020    0.10  0.000002  ( 0.000961  0.000293 -0.000977)
 44:   3237.17   0.000007    0.04  0.000001  (-0.000663 -0.000461 -0.000199)
 45:   3301.96   0.012147   61.39  0.001148  ( 0.006086 -0.007047 -0.032578)
 46:   3302.62   0.005585   28.22  0.000528  ( 0.019731  0.011760  0.000356)
 47:   3320.58   0.002787   14.08  0.000262  ( 0.003616 -0.002639 -0.015551)

--------------------------
THERMOCHEMISTRY AT 298.15K
--------------------------

Temperature         ... 298.15 K
Pressure            ... 1.00 atm
Total Mass          ... 97.14 AMU

Throughout the following assumptions are being made:
  (1) The electronic state is orbitally nondegenerate
  (2) There are no thermally accessible electronically excited states
  (3) Hindered rotations indicated by low frequency modes are not
      treated as such but are treated as vibrations and this may
      cause some error
  (4) All equations used are the standard statistical mechanics
      equations for an ideal gas
  (5) All vibrations are strictly harmonic

freq.      88.45  E(vib)   ...       0.48
freq.     130.22  E(vib)   ...       0.43
freq.     195.39  E(vib)   ...       0.36
freq.     278.84  E(vib)   ...       0.28
freq.     283.49  E(vib)   ...       0.28
freq.     425.29  E(vib)   ...       0.18
freq.     626.08  E(vib)   ...       0.09
freq.     645.95  E(vib)   ...       0.09
freq.     647.21  E(vib)   ...       0.09
freq.     741.12  E(vib)   ...       0.06
freq.     771.67  E(vib)   ...       0.05
freq.     886.83  E(vib)   ...       0.04
freq.     916.02  E(vib)   ...       0.03
freq.    1051.35  E(vib)   ...       0.02
freq.    1054.91  E(vib)   ...       0.02
freq.    1097.52  E(vib)   ...       0.02
freq.    1107.07  E(vib)   ...       0.02
freq.    1121.11  E(vib)   ...       0.01
freq.    1143.47  E(vib)   ...       0.01
freq.    1149.33  E(vib)   ...       0.01
freq.    1210.14  E(vib)   ...       0.01
freq.    1285.45  E(vib)   ...       0.01
freq.    1407.66  E(vib)   ...       0.00
freq.    1435.47  E(vib)   ...       0.00
freq.    1439.35  E(vib)   ...       0.00
freq.    1446.60  E(vib)   ...       0.00
freq.    1448.44  E(vib)   ...       0.00
freq.    1449.75  E(vib)   ...       0.00
freq.    1460.14  E(vib)   ...       0.00
freq.    1499.00  E(vib)   ...       0.00
freq.    1516.17  E(vib)   ...       0.00
freq.    1661.76  E(vib)   ...       0.00
freq.    1675.68  E(vib)   ...       0.00
freq.    3103.81  E(vib)   ...       0.00
freq.    3104.56  E(vib)   ...       0.00
freq.    3221.65  E(vib)   ...       0.00
freq.    3222.33  E(vib)   ...       0.00
freq.    3237.00  E(vib)   ...       0.00
freq.    3237.17  E(vib)   ...       0.00
freq.    3301.96  E(vib)   ...       0.00
freq.    3302.62  E(vib)   ...       0.00
freq.    3320.58  E(vib)   ...       0.00

------------
INNER ENERGY
------------

The inner energy is: U= E(el) + E(ZPE) + E(vib) + E(rot) + E(trans)
    E(el)   - is the total energy from the electronic structure calculation
              = E(kin-el) + E(nuc-el) + E(el-el) + E(nuc-nuc)
    E(ZPE)  - the the zero temperature vibrational energy from the frequency calculation
    E(vib)  - the the finite temperature correction to E(ZPE) due to population
              of excited vibrational states
    E(rot)  - is the rotational thermal energy
    E(trans)- is the translational thermal energy

Summary of contributions to the inner energy U:
Electronic energy                ...   -305.01612918 Eh
Zero point energy                ...      0.14204058 Eh      89.13 kcal/mol
Thermal vibrational correction   ...      0.00414785 Eh       2.60 kcal/mol
Thermal rotational correction    ...      0.00141627 Eh       0.89 kcal/mol
Thermal translational correction ...      0.00141627 Eh       0.89 kcal/mol
-----------------------------------------------------------------------
Total thermal energy                   -304.86710820 Eh

Summary of corrections to the electronic energy:
(perhaps to be used in another calculation)
Total thermal correction                  0.00698039 Eh       4.38 kcal/mol
Non-thermal (ZPE) correction              0.14204058 Eh      89.13 kcal/mol
-----------------------------------------------------------------------
Total correction                          0.14902097 Eh      93.51 kcal/mol

--------
ENTHALPY
--------

The enthalpy is H = U + kB*T
                kB is Boltzmann's constant
Total free energy                 ...   -304.86710820 Eh
Thermal Enthalpy correction       ...      0.00094421 Eh       0.59 kcal/mol
-----------------------------------------------------------------------
Total Enthalpy                    ...   -304.86616399 Eh

Note: Only C1 symmetry has been detected, increase convergence thresholds
      if your molecule has a higher symmetry. Symmetry factor of 1.0 is
      used for the rotational entropy correction.

Note: Rotational entropy computed according to Herzberg
Infrared and Raman Spectra, Chapter V,1, Van Nostrand Reinhold, 1945
Point Group:  C1, Symmetry Number:   1
Rotational constants in cm-1:     0.227833     0.068832     0.053964

Vibrational entropy computed according to the QRRHO of S. Grimme
Chem.Eur.J. 2012 18 9955

-------
ENTROPY
-------

The entropy contributions are T*S = T*(S(el)+S(vib)+S(rot)+S(trans))
     S(el)   - electronic entropy
     S(vib)  - vibrational entropy
     S(rot)  - rotational entropy
     S(trans)- translational entropy
The entropies will be listed as multiplied by the temperature to get
units of energy

Electronic entropy                ...      0.00000000 Eh      0.00 kcal/mol
Vibrational entropy               ...      0.00702874 Eh      4.41 kcal/mol
Rotational entropy                ...      0.01285070 Eh      8.06 kcal/mol
Translational entropy             ...      0.01883016 Eh     11.82 kcal/mol
-----------------------------------------------------------------------
Final entropy term                ...      0.03870960 Eh     24.29 kcal/mol

In case the symmetry of your molecule has not been determined correctly
or in case you have a reason to use a different symmetry number we print
out the resulting rotational entropy values for sn=1,12 :
 --------------------------------------------------------
|  sn= 1 | S(rot)=       0.01285070 Eh      8.06 kcal/mol|
|  sn= 2 | S(rot)=       0.01219624 Eh      7.65 kcal/mol|
|  sn= 3 | S(rot)=       0.01181341 Eh      7.41 kcal/mol|
|  sn= 4 | S(rot)=       0.01154179 Eh      7.24 kcal/mol|
|  sn= 5 | S(rot)=       0.01133110 Eh      7.11 kcal/mol|
|  sn= 6 | S(rot)=       0.01115895 Eh      7.00 kcal/mol|
|  sn= 7 | S(rot)=       0.01101341 Eh      6.91 kcal/mol|
|  sn= 8 | S(rot)=       0.01088733 Eh      6.83 kcal/mol|
|  sn= 9 | S(rot)=       0.01077612 Eh      6.76 kcal/mol|
|  sn=10 | S(rot)=       0.01067664 Eh      6.70 kcal/mol|
|  sn=11 | S(rot)=       0.01058665 Eh      6.64 kcal/mol|
|  sn=12 | S(rot)=       0.01050450 Eh      6.59 kcal/mol|
 --------------------------------------------------------

-------------------
GIBBS FREE ENERGY
-------------------

The Gibbs free energy is G = H - T*S

                             ****ORCA TERMINATED NORMALLY****
TOTAL RUN TIME: 0 days 0 hours 7 minutes 57 seconds 625 msec
