                         Program Version 5.0.3 -  RELEASE  -
|  1> # ORCAForces - ../2023_02/pKa_prediction/Yates_carbene_xyzs/Our_level/Water/MeClH+_Water.inp
|  2> # Basic Mode
|  3> #
|  4> ! Opt FREQ wB97X D4 Def2-SVP SlowConv TightSCF DEFGRID2 Def2/J RIJCOSX CPCM(Water)
|  5>
|  6> %maxcore 4500
|  7>
|  8> %PAL NPROCS 4 END
|  9>
| 10> %geom
| 11> Maxiter 150
| 12> END
| 13>
| 14> * xyzfile 1 1 MeClH+.xyz
| 15>
| 16>                          ****END OF INPUT****
 Total Charge           Charge          ....    1
 Multiplicity           Mult            ....    1
 Number of Electrons    NEL             ....   84
Dispersion correction           -0.002499630
FINAL SINGLE POINT ENERGY     -1223.906822117728
Dispersion correction            ... Starting D4
Dispersion correction           -0.002505190
FINAL SINGLE POINT ENERGY     -1223.907659791770
Dispersion correction            ... Starting D4
Dispersion correction           -0.002505795
FINAL SINGLE POINT ENERGY     -1223.907668985324
Dispersion correction            ... Starting D4
                    ***********************HURRAY********************

CARTESIAN COORDINATES (ANGSTROEM)
---------------------------------
  N      0.000000    1.086524    1.056390
  N     -0.000000   -1.086525    1.056389
  C      0.000000    0.682380   -0.261713
  C     -0.000000   -0.682380   -0.261714
  C      0.000000   -0.000000    1.824601
  Cl     0.000000    1.763364   -1.558961
  Cl    -0.000002   -1.763363   -1.558962
  C     -0.000000    2.471869    1.519704
  C      0.000000   -2.471869    1.519704
  H     -0.000000    2.467608    2.615295
  H     -0.000000   -2.467607    2.615295
  H     -0.900027    2.976313    1.145964
  H     -0.900026   -2.976314    1.145965
  H      0.900028   -2.976313    1.145966
  H      0.900027    2.976313    1.145965
  H     -0.000000   -0.000001    2.915337

 Multiplicity           Mult            ....    1
 Number of Electrons    NEL             ....   84
 Basis Dimension        Dim             ....  169

ORBITAL ENERGIES
----------------

  NO   OCC          E(Eh)            E(eV)
   0   2.0000    -101.523836     -2762.6040
   1   2.0000    -101.523822     -2762.6036
   2   2.0000     -14.534263      -395.4974
   3   2.0000     -14.534239      -395.4968
   4   2.0000     -10.402849      -283.0759
   5   2.0000     -10.401261      -283.0327
   6   2.0000     -10.400701      -283.0175
   7   2.0000     -10.336167      -281.2614
   8   2.0000     -10.336146      -281.2608
   9   2.0000      -9.596444      -261.1325
  10   2.0000      -9.596424      -261.1320
  11   2.0000      -7.365834      -200.4345
  12   2.0000      -7.365829      -200.4344
  13   2.0000      -7.353992      -200.1123
  14   2.0000      -7.353988      -200.1122
  15   2.0000      -7.353927      -200.1105
  16   2.0000      -7.353916      -200.1102
  17   2.0000      -1.243905       -33.8484
  18   2.0000      -1.122317       -30.5398
  19   2.0000      -1.058966       -28.8159
  20   2.0000      -1.021451       -27.7951
  21   2.0000      -0.942937       -25.6586
  22   2.0000      -0.895057       -24.3558
  23   2.0000      -0.847586       -23.0640
  24   2.0000      -0.773440       -21.0464
  25   2.0000      -0.763793       -20.7839
  26   2.0000      -0.685567       -18.6552
  27   2.0000      -0.665677       -18.1140
  28   2.0000      -0.618765       -16.8374
  29   2.0000      -0.614513       -16.7217
  30   2.0000      -0.601792       -16.3756
  31   2.0000      -0.592982       -16.1359
  32   2.0000      -0.591549       -16.0969
  33   2.0000      -0.540353       -14.7037
  34   2.0000      -0.538646       -14.6573
  35   2.0000      -0.530219       -14.4280
  36   2.0000      -0.498162       -13.5557
  37   2.0000      -0.490650       -13.3513
  38   2.0000      -0.462853       -12.5949
  39   2.0000      -0.462518       -12.5858
  40   2.0000      -0.423799       -11.5321
  41   2.0000      -0.360853        -9.8193
  42   0.0000       0.048749         1.3265
  43   0.0000       0.072278         1.9668
  44   0.0000       0.101716         2.7678
  45   0.0000       0.148811         4.0494
  46   0.0000       0.158519         4.3135

MULLIKEN ATOMIC CHARGES
-----------------------
   0 N :   -0.216409
   1 N :   -0.216410
   2 C :    0.127311
   3 C :    0.127312
   4 C :    0.246619
   5 Cl:   -0.000519
   6 Cl:   -0.000519
   7 C :    0.075979
   8 C :    0.075978
   9 H :    0.103578
  10 H :    0.103578
  11 H :    0.104280
  12 H :    0.104280
  13 H :    0.104280
  14 H :    0.104280
  15 H :    0.156381
Sum of atomic charges:    1.0000000

LOEWDIN ATOMIC CHARGES
----------------------
   0 N :    0.085528
   1 N :    0.085528
   2 C :   -0.143316
   3 C :   -0.143316
   4 C :    0.149241
   5 Cl:    0.213586
   6 Cl:    0.213586
   7 C :    0.056794
   8 C :    0.056794
   9 H :    0.061427
  10 H :    0.061427
  11 H :    0.055477
  12 H :    0.055477
  13 H :    0.055477
  14 H :    0.055477
  15 H :    0.080813

  Mayer bond orders larger than 0.100000
B(  0-N ,  2-C ) :   1.1706 B(  0-N ,  4-C ) :   1.3522 B(  0-N ,  7-C ) :   0.8811
B(  1-N ,  3-C ) :   1.1706 B(  1-N ,  4-C ) :   1.3522 B(  1-N ,  8-C ) :   0.8811
B(  2-C ,  3-C ) :   1.5571 B(  2-C ,  5-Cl) :   1.1336 B(  3-C ,  6-Cl) :   1.1336
B(  4-C , 15-H ) :   0.9602 B(  7-C ,  9-H ) :   0.9680 B(  7-C , 11-H ) :   0.9714
B(  7-C , 14-H ) :   0.9714 B(  8-C , 10-H ) :   0.9680 B(  8-C , 12-H ) :   0.9714
B(  8-C , 13-H ) :   0.9714

Dispersion correction           -0.002505867
FINAL SINGLE POINT ENERGY     -1223.907670787558

DIPOLE MOMENT
-------------
                                X             Y             Z
Electronic contribution:     -0.00000       0.00000     -13.30872
Nuclear contribution   :      0.00000      -0.00000      16.51408
                        -----------------------------------------
Total Dipole Moment    :      0.00000       0.00000       3.20536
                        -----------------------------------------
Magnitude (a.u.)       :      3.20536
Magnitude (Debye)      :      8.14739

Dispersion correction in the Hessian             ... Starting D4

VIBRATIONAL FREQUENCIES
-----------------------

Scaling factor for frequencies =  1.000000000  (already applied!)

   0:         0.00 cm**-1
   1:         0.00 cm**-1
   2:         0.00 cm**-1
   3:         0.00 cm**-1
   4:         0.00 cm**-1
   5:         0.00 cm**-1
   6:        78.85 cm**-1
   7:        79.29 cm**-1
   8:       109.00 cm**-1
   9:       161.69 cm**-1
  10:       171.41 cm**-1
  11:       233.38 cm**-1
  12:       268.63 cm**-1
  13:       280.77 cm**-1
  14:       320.73 cm**-1
  15:       444.90 cm**-1
  16:       549.46 cm**-1
  17:       555.47 cm**-1
  18:       639.91 cm**-1
  19:       648.05 cm**-1
  20:       691.73 cm**-1
  21:       871.44 cm**-1
  22:       872.49 cm**-1
  23:      1103.84 cm**-1
  24:      1105.42 cm**-1
  25:      1138.31 cm**-1
  26:      1139.54 cm**-1
  27:      1144.58 cm**-1
  28:      1204.98 cm**-1
  29:      1230.09 cm**-1
  30:      1409.00 cm**-1
  31:      1428.67 cm**-1
  32:      1434.48 cm**-1
  33:      1438.04 cm**-1
  34:      1439.58 cm**-1
  35:      1440.25 cm**-1
  36:      1466.94 cm**-1
  37:      1496.26 cm**-1
  38:      1525.42 cm**-1
  39:      1658.72 cm**-1
  40:      1679.42 cm**-1
  41:      3103.99 cm**-1
  42:      3104.09 cm**-1
  43:      3226.22 cm**-1
  44:      3226.23 cm**-1
  45:      3238.57 cm**-1
  46:      3238.61 cm**-1
  47:      3299.07 cm**-1

IR SPECTRUM
-----------

 Mode   freq       eps      Int      T**2         TX        TY        TZ
       cm**-1   L/(mol*cm) km/mol    a.u.
----------------------------------------------------------------------------
  6:     78.85   0.000099    0.50  0.000392  ( 0.019789  0.000000 -0.000000)
  7:     79.29   0.000000    0.00  0.000000  (-0.000123  0.000000 -0.000000)
  8:    109.00   0.000000    0.00  0.000000  (-0.000000  0.000000  0.000000)
  9:    161.69   0.001142    5.77  0.002203  ( 0.046941  0.000000 -0.000000)
 10:    171.41   0.000327    1.65  0.000596  (-0.000000  0.000000 -0.024417)
 11:    233.38   0.000004    0.02  0.000005  ( 0.000000  0.002294 -0.000000)
 12:    268.63   0.000871    4.40  0.001012  ( 0.000000  0.000000  0.031813)
 13:    280.77   0.000214    1.08  0.000238  (-0.015421  0.000000  0.000000)
 14:    320.73   0.000000    0.00  0.000000  ( 0.000000 -0.000000  0.000000)
 15:    444.90   0.002471   12.49  0.001733  ( 0.000000 -0.041634 -0.000000)
 16:    549.46   0.003075   15.54  0.001746  (-0.000000  0.000000  0.041790)
 17:    555.47   0.000014    0.07  0.000008  (-0.000000 -0.002770 -0.000000)
 18:    639.91   0.005156   26.06  0.002514  ( 0.050144  0.000000  0.000000)
 19:    648.05   0.000025    0.12  0.000012  ( 0.000000  0.000000 -0.003444)
 20:    691.73   0.000000    0.00  0.000000  (-0.000000  0.000000  0.000000)
 21:    871.44   0.002653   13.41  0.000950  (-0.030821  0.000000  0.000000)
 22:    872.49   0.000102    0.51  0.000036  (-0.000000 -0.006033  0.000000)
 23:   1103.84   0.002826   14.28  0.000799  (-0.000000  0.028263  0.000002)
 24:   1105.42   0.000862    4.36  0.000243  ( 0.000000 -0.000003  0.015599)
 25:   1138.31   0.003701   18.70  0.001014  ( 0.000000 -0.000000  0.031851)
 26:   1139.54   0.000000    0.00  0.000000  (-0.000000  0.000000  0.000000)
 27:   1144.58   0.000304    1.54  0.000083  (-0.009108  0.000000  0.000000)
 28:   1204.98   0.028597  144.52  0.007406  ( 0.000000  0.086059  0.000000)
 29:   1230.09   0.004122   20.83  0.001046  ( 0.000000 -0.032336  0.000000)
 30:   1409.00   0.000490    2.47  0.000108  (-0.000000  0.000000 -0.010415)
 31:   1428.67   0.001431    7.23  0.000313  (-0.000000 -0.017681 -0.000000)
 32:   1434.48   0.002782   14.06  0.000605  (-0.000000  0.024599 -0.000000)
 33:   1438.04   0.003641   18.40  0.000790  ( 0.000001  0.000000 -0.028111)
 34:   1439.58   0.000000    0.00  0.000000  ( 0.000000 -0.000000 -0.000000)
 35:   1440.25   0.011875   60.01  0.002573  (-0.050724 -0.000000 -0.000000)
 36:   1466.94   0.016923   85.52  0.003600  (-0.000000  0.000000 -0.060001)
 37:   1496.26   0.001586    8.01  0.000331  ( 0.000000  0.018187  0.000000)
 38:   1525.42   0.000034    0.17  0.000007  ( 0.000000 -0.000000 -0.002625)
 39:   1658.72   0.033008  166.81  0.006210  (-0.000000  0.078804  0.000000)
 40:   1679.42   0.018953   95.78  0.003522  ( 0.000000 -0.000000  0.059344)
 41:   3103.99   0.001677    8.48  0.000169  ( 0.000000 -0.012986  0.000007)
 42:   3104.09   0.000323    1.63  0.000032  (-0.000000 -0.000016 -0.005694)
 43:   3226.22   0.000000    0.00  0.000000  ( 0.000027  0.000000  0.000000)
 44:   3226.23   0.000091    0.46  0.000009  (-0.002973 -0.000000 -0.000000)
 45:   3238.57   0.000381    1.93  0.000037  (-0.000000  0.000009  0.006062)
 46:   3238.61   0.000023    0.11  0.000002  (-0.000000  0.001479 -0.000037)
 47:   3299.07   0.016592   83.85  0.001569  (-0.000000  0.000000  0.039617)

--------------------------
THERMOCHEMISTRY AT 298.15K
--------------------------

Temperature         ... 298.15 K
Pressure            ... 1.00 atm
Total Mass          ... 166.03 AMU

Throughout the following assumptions are being made:
  (1) The electronic state is orbitally nondegenerate
  (2) There are no thermally accessible electronically excited states
  (3) Hindered rotations indicated by low frequency modes are not
      treated as such but are treated as vibrations and this may
      cause some error
  (4) All equations used are the standard statistical mechanics
      equations for an ideal gas
  (5) All vibrations are strictly harmonic

freq.      78.85  E(vib)   ...       0.49
freq.      79.29  E(vib)   ...       0.49
freq.     109.00  E(vib)   ...       0.45
freq.     161.69  E(vib)   ...       0.39
freq.     171.41  E(vib)   ...       0.38
freq.     233.38  E(vib)   ...       0.32
freq.     268.63  E(vib)   ...       0.29
freq.     280.77  E(vib)   ...       0.28
freq.     320.73  E(vib)   ...       0.25
freq.     444.90  E(vib)   ...       0.17
freq.     549.46  E(vib)   ...       0.12
freq.     555.47  E(vib)   ...       0.12
freq.     639.91  E(vib)   ...       0.09
freq.     648.05  E(vib)   ...       0.08
freq.     691.73  E(vib)   ...       0.07
freq.     871.44  E(vib)   ...       0.04
freq.     872.49  E(vib)   ...       0.04
freq.    1103.84  E(vib)   ...       0.02
freq.    1105.42  E(vib)   ...       0.02
freq.    1138.31  E(vib)   ...       0.01
freq.    1139.54  E(vib)   ...       0.01
freq.    1144.58  E(vib)   ...       0.01
freq.    1204.98  E(vib)   ...       0.01
freq.    1230.09  E(vib)   ...       0.01
freq.    1409.00  E(vib)   ...       0.00
freq.    1428.67  E(vib)   ...       0.00
freq.    1434.48  E(vib)   ...       0.00
freq.    1438.04  E(vib)   ...       0.00
freq.    1439.58  E(vib)   ...       0.00
freq.    1440.25  E(vib)   ...       0.00
freq.    1466.94  E(vib)   ...       0.00
freq.    1496.26  E(vib)   ...       0.00
freq.    1525.42  E(vib)   ...       0.00
freq.    1658.72  E(vib)   ...       0.00
freq.    1679.42  E(vib)   ...       0.00
freq.    3103.99  E(vib)   ...       0.00
freq.    3104.09  E(vib)   ...       0.00
freq.    3226.22  E(vib)   ...       0.00
freq.    3226.23  E(vib)   ...       0.00
freq.    3238.57  E(vib)   ...       0.00
freq.    3238.61  E(vib)   ...       0.00
freq.    3299.07  E(vib)   ...       0.00

------------
INNER ENERGY
------------

The inner energy is: U= E(el) + E(ZPE) + E(vib) + E(rot) + E(trans)
    E(el)   - is the total energy from the electronic structure calculation
              = E(kin-el) + E(nuc-el) + E(el-el) + E(nuc-nuc)
    E(ZPE)  - the the zero temperature vibrational energy from the frequency calculation
    E(vib)  - the the finite temperature correction to E(ZPE) due to population
              of excited vibrational states
    E(rot)  - is the rotational thermal energy
    E(trans)- is the translational thermal energy

Summary of contributions to the inner energy U:
Electronic energy                ...  -1223.90767079 Eh
Zero point energy                ...      0.12278755 Eh      77.05 kcal/mol
Thermal vibrational correction   ...      0.00666779 Eh       4.18 kcal/mol
Thermal rotational correction    ...      0.00141627 Eh       0.89 kcal/mol
Thermal translational correction ...      0.00141627 Eh       0.89 kcal/mol
-----------------------------------------------------------------------
Total thermal energy                  -1223.77538290 Eh

Summary of corrections to the electronic energy:
(perhaps to be used in another calculation)
Total thermal correction                  0.00950033 Eh       5.96 kcal/mol
Non-thermal (ZPE) correction              0.12278755 Eh      77.05 kcal/mol
-----------------------------------------------------------------------
Total correction                          0.13228789 Eh      83.01 kcal/mol

--------
ENTHALPY
--------

The enthalpy is H = U + kB*T
                kB is Boltzmann's constant
Total free energy                 ...  -1223.77538290 Eh
Thermal Enthalpy correction       ...      0.00094421 Eh       0.59 kcal/mol
-----------------------------------------------------------------------
Total Enthalpy                    ...  -1223.77443869 Eh

Note: Rotational entropy computed according to Herzberg
Infrared and Raman Spectra, Chapter V,1, Van Nostrand Reinhold, 1945
Point Group:  C2v, Symmetry Number:   2
Rotational constants in cm-1:     0.051071     0.036427     0.021439

Vibrational entropy computed according to the QRRHO of S. Grimme
Chem.Eur.J. 2012 18 9955

-------
ENTROPY
-------

The entropy contributions are T*S = T*(S(el)+S(vib)+S(rot)+S(trans))
     S(el)   - electronic entropy
     S(vib)  - vibrational entropy
     S(rot)  - rotational entropy
     S(trans)- translational entropy
The entropies will be listed as multiplied by the temperature to get
units of energy

Electronic entropy                ...      0.00000000 Eh      0.00 kcal/mol
Vibrational entropy               ...      0.01174857 Eh      7.37 kcal/mol
Rotational entropy                ...      0.01363840 Eh      8.56 kcal/mol
Translational entropy             ...      0.01958930 Eh     12.29 kcal/mol
-----------------------------------------------------------------------
Final entropy term                ...      0.04497627 Eh     28.22 kcal/mol

In case the symmetry of your molecule has not been determined correctly
or in case you have a reason to use a different symmetry number we print
out the resulting rotational entropy values for sn=1,12 :
 --------------------------------------------------------
|  sn= 1 | S(rot)=       0.01429286 Eh      8.97 kcal/mol|
|  sn= 2 | S(rot)=       0.01363840 Eh      8.56 kcal/mol|
|  sn= 3 | S(rot)=       0.01325557 Eh      8.32 kcal/mol|
|  sn= 4 | S(rot)=       0.01298395 Eh      8.15 kcal/mol|
|  sn= 5 | S(rot)=       0.01277326 Eh      8.02 kcal/mol|
|  sn= 6 | S(rot)=       0.01260112 Eh      7.91 kcal/mol|
|  sn= 7 | S(rot)=       0.01245557 Eh      7.82 kcal/mol|
|  sn= 8 | S(rot)=       0.01232949 Eh      7.74 kcal/mol|
|  sn= 9 | S(rot)=       0.01221828 Eh      7.67 kcal/mol|
|  sn=10 | S(rot)=       0.01211880 Eh      7.60 kcal/mol|
|  sn=11 | S(rot)=       0.01202881 Eh      7.55 kcal/mol|
|  sn=12 | S(rot)=       0.01194666 Eh      7.50 kcal/mol|
 --------------------------------------------------------

-------------------
GIBBS FREE ENERGY
-------------------

The Gibbs free energy is G = H - T*S

Total enthalpy                    ...  -1223.77443869 Eh
Total entropy correction          ...     -0.04497627 Eh    -28.22 kcal/mol
-----------------------------------------------------------------------
Final Gibbs free energy         ...  -1223.81941497 Eh

                             ****ORCA TERMINATED NORMALLY****
TOTAL RUN TIME: 0 days 0 hours 5 minutes 1 seconds 840 msec
