                         Program Version 5.0.3 -  RELEASE  -
|  1> # ORCAForces - ../2023_02/pKa_prediction/Yates_carbene_xyzs/Our_level/Water/PhH+_Water.inp
|  2> # Basic Mode
|  3> #
|  4> ! Opt FREQ wB97X D4 Def2-SVP SlowConv TightSCF DEFGRID2 Def2/J RIJCOSX CPCM(Water)
|  5>
|  6> %maxcore 4500
|  7>
|  8> %PAL NPROCS 4 END
|  9>
| 10> %geom
| 11> Maxiter 150
| 12> END
| 13>
| 14> * xyzfile 1 1 PhH+.xyz
| 15>
| 16>                          ****END OF INPUT****
 Total Charge           Charge          ....    1
 Multiplicity           Mult            ....    1
 Number of Electrons    NEL             ....  116
Dispersion correction           -0.005711201
FINAL SINGLE POINT ENERGY      -688.117436390922
Dispersion correction            ... Starting D4
Dispersion correction           -0.005725725
FINAL SINGLE POINT ENERGY      -688.118930186738
Dispersion correction            ... Starting D4
Dispersion correction           -0.005727976
FINAL SINGLE POINT ENERGY      -688.119009927452
Dispersion correction            ... Starting D4
Dispersion correction           -0.005728678
FINAL SINGLE POINT ENERGY      -688.119036637078
Dispersion correction            ... Starting D4
                    ***********************HURRAY********************

CARTESIAN COORDINATES (ANGSTROEM)
---------------------------------
  C      0.005705    0.679070   -1.865586
  C     -0.005711   -0.679070   -1.865586
  H      0.003694    1.394770   -2.685202
  H     -0.003702   -1.394770   -2.685202
  C      0.006825    2.439614   -0.073877
  C     -0.894250    2.818275    0.919046
  C      0.910267    3.346084   -0.625498
  C     -0.878546    4.134505    1.376255
  H     -1.608558    2.094479    1.320717
  C      0.906085    4.661921   -0.167953
  H      1.615970    3.022105   -1.395195
  C      0.017005    5.055680    0.833055
  H     -1.580889    4.441888    2.155199
  H      1.611615    5.381529   -0.591242
  H      0.021030    6.088413    1.191721
  C     -0.006827   -2.439614   -0.073876
  C      0.894247   -2.818273    0.919049
  C     -0.910265   -3.346086   -0.625499
  C      0.878547   -4.134503    1.376257
  H      1.608553   -2.094476    1.320721
  C     -0.906081   -4.661923   -0.167955
  H     -1.615968   -3.022108   -1.395197
  C     -0.017001   -5.055680    0.833054
  H      1.580889   -4.441884    2.155203
  H     -1.611607   -5.381533   -0.591246
  H     -0.021023   -6.088414    1.191719
  C     -0.000000    0.000000    0.235440
  H      0.000001    0.000001    1.326143
  N      0.007357    1.081772   -0.542492
  N     -0.007361   -1.081771   -0.542492

 Multiplicity           Mult            ....    1
 Number of Electrons    NEL             ....  116
 Basis Dimension        Dim             ....  303

ORBITAL ENERGIES
----------------

  NO   OCC          E(Eh)            E(eV)
   0   2.0000     -14.529681      -395.3727
   1   2.0000     -14.529672      -395.3725
   2   2.0000     -10.399497      -282.9847
   3   2.0000     -10.346835      -281.5517
   4   2.0000     -10.346787      -281.5504
   5   2.0000     -10.346149      -281.5330
   6   2.0000     -10.345561      -281.5170
   7   2.0000     -10.300597      -280.2935
   8   2.0000     -10.300596      -280.2935
   9   2.0000     -10.300296      -280.2853
  10   2.0000     -10.300292      -280.2852
  11   2.0000     -10.293631      -280.1039
  12   2.0000     -10.293631      -280.1039
  13   2.0000     -10.293566      -280.1022
  14   2.0000     -10.293565      -280.1021
  15   2.0000     -10.291858      -280.0557
  16   2.0000     -10.291858      -280.0557
  17   2.0000      -1.232382       -33.5348
  18   2.0000      -1.117571       -30.4106
  19   2.0000      -1.016412       -27.6580
  20   2.0000      -0.997940       -27.1553
  21   2.0000      -0.945900       -25.7393
  22   2.0000      -0.917597       -24.9691
  23   2.0000      -0.893364       -24.3097
  24   2.0000      -0.890281       -24.2258
  25   2.0000      -0.883097       -24.0303
  26   2.0000      -0.810560       -22.0565
  27   2.0000      -0.797926       -21.7127
  28   2.0000      -0.751535       -20.4503
  29   2.0000      -0.747924       -20.3521
  30   2.0000      -0.733369       -19.9560
  31   2.0000      -0.732607       -19.9352
  32   2.0000      -0.698955       -19.0195
  33   2.0000      -0.668391       -18.1878
  34   2.0000      -0.639351       -17.3976
  35   2.0000      -0.628177       -17.0936
  36   2.0000      -0.611540       -16.6409
  37   2.0000      -0.607866       -16.5409
  38   2.0000      -0.592167       -16.1137
  39   2.0000      -0.591302       -16.0902
  40   2.0000      -0.584181       -15.8964
  41   2.0000      -0.569387       -15.4938
  42   2.0000      -0.559065       -15.2129
  43   2.0000      -0.557351       -15.1663
  44   2.0000      -0.548782       -14.9331
  45   2.0000      -0.547666       -14.9027
  46   2.0000      -0.522413       -14.2156
  47   2.0000      -0.507386       -13.8067
  48   2.0000      -0.481044       -13.0899
  49   2.0000      -0.478307       -13.0154
  50   2.0000      -0.477417       -12.9912
  51   2.0000      -0.466409       -12.6916
  52   2.0000      -0.454126       -12.3574
  53   2.0000      -0.392484       -10.6800
  54   2.0000      -0.369801       -10.0628
  55   2.0000      -0.369441       -10.0530
  56   2.0000      -0.367799       -10.0083
  57   2.0000      -0.358612        -9.7583
  58   0.0000       0.020466         0.5569
  59   0.0000       0.045658         1.2424
  60   0.0000       0.051631         1.4050
  61   0.0000       0.052354         1.4246
  62   0.0000       0.078757         2.1431

MULLIKEN ATOMIC CHARGES
-----------------------
   0 C :    0.082375
   1 C :    0.082375
   2 H :    0.115969
   3 H :    0.115970
   4 C :    0.110505
   5 C :   -0.025123
   6 C :   -0.019584
   7 C :   -0.030300
   8 H :    0.054518
   9 C :   -0.031817
  10 H :    0.053244
  11 C :   -0.004386
  12 H :    0.055102
  13 H :    0.055320
  14 H :    0.053068
  15 C :    0.110506
  16 C :   -0.025125
  17 C :   -0.019585
  18 C :   -0.030298
  19 H :    0.054517
  20 C :   -0.031816
  21 H :    0.053244
  22 C :   -0.004386
  23 H :    0.055102
  24 H :    0.055320
  25 H :    0.053068
  26 C :    0.249986
  27 H :    0.152520
  28 N :   -0.170145
  29 N :   -0.170144
Sum of atomic charges:    1.0000000

LOEWDIN ATOMIC CHARGES
----------------------
   0 C :    0.034327
   1 C :    0.034327
   2 H :    0.067501
   3 H :    0.067501
   4 C :    0.010004
   5 C :   -0.021796
   6 C :   -0.019862
   7 C :   -0.015094
   8 H :    0.053052
   9 C :   -0.015164
  10 H :    0.053165
  11 C :   -0.015464
  12 H :    0.048973
  13 H :    0.048932
  14 H :    0.047341
  15 C :    0.010005
  16 C :   -0.021796
  17 C :   -0.019862
  18 C :   -0.015094
  19 H :    0.053052
  20 C :   -0.015164
  21 H :    0.053165
  22 C :   -0.015465
  23 H :    0.048974
  24 H :    0.048932
  25 H :    0.047341
  26 C :    0.149207
  27 H :    0.077097
  28 N :    0.110932
  29 N :    0.110932

  Mayer bond orders larger than 0.100000
B(  0-C ,  1-C ) :   1.6234 B(  0-C ,  2-H ) :   0.9808 B(  0-C , 28-N ) :   1.1461
B(  1-C ,  3-H ) :   0.9808 B(  1-C , 29-N ) :   1.1461 B(  4-C ,  5-C ) :   1.4014
B(  4-C ,  6-C ) :   1.3988 B(  4-C , 28-N ) :   0.8679 B(  5-C ,  7-C ) :   1.3903
B(  5-C ,  8-H ) :   0.9936 B(  6-C ,  9-C ) :   1.3947 B(  6-C , 10-H ) :   0.9948
B(  7-C , 11-C ) :   1.3950 B(  7-C , 12-H ) :   0.9879 B(  9-C , 11-C ) :   1.3913
B(  9-C , 13-H ) :   0.9881 B( 11-C , 14-H ) :   0.9940 B( 15-C , 16-C ) :   1.4014
B( 15-C , 17-C ) :   1.3988 B( 15-C , 29-N ) :   0.8679 B( 16-C , 18-C ) :   1.3903
B( 16-C , 19-H ) :   0.9936 B( 17-C , 20-C ) :   1.3946 B( 17-C , 21-H ) :   0.9948
B( 18-C , 22-C ) :   1.3950 B( 18-C , 23-H ) :   0.9879 B( 20-C , 22-C ) :   1.3913
B( 20-C , 24-H ) :   0.9881 B( 22-C , 25-H ) :   0.9940 B( 26-C , 27-H ) :   0.9621
B( 26-C , 28-N ) :   1.3412 B( 26-C , 29-N ) :   1.3412

Dispersion correction           -0.005728450
FINAL SINGLE POINT ENERGY      -688.119037156099

DIPOLE MOMENT
-------------
                                X             Y             Z
Electronic contribution:     -0.00001       0.00000      -1.84998
Nuclear contribution   :      0.00001      -0.00000       1.31571
                        -----------------------------------------
Total Dipole Moment    :     -0.00000       0.00000      -0.53427
                        -----------------------------------------
Magnitude (a.u.)       :      0.53427
Magnitude (Debye)      :      1.35801

Dispersion correction in the Hessian             ... Starting D4

VIBRATIONAL FREQUENCIES
-----------------------

Scaling factor for frequencies =  1.000000000  (already applied!)

   0:         0.00 cm**-1
   1:         0.00 cm**-1
   2:         0.00 cm**-1
   3:         0.00 cm**-1
   4:         0.00 cm**-1
   5:         0.00 cm**-1
   6:        29.96 cm**-1
   7:        44.41 cm**-1
   8:        66.29 cm**-1
   9:        86.65 cm**-1
  10:       130.92 cm**-1
  11:       144.67 cm**-1
  12:       251.71 cm**-1
  13:       308.08 cm**-1
  14:       315.70 cm**-1
  15:       410.89 cm**-1
  16:       426.32 cm**-1
  17:       426.55 cm**-1
  18:       432.39 cm**-1
  19:       448.92 cm**-1
  20:       538.24 cm**-1
  21:       572.02 cm**-1
  22:       625.19 cm**-1
  23:       625.95 cm**-1
  24:       674.40 cm**-1
  25:       674.90 cm**-1
  26:       694.36 cm**-1
  27:       721.82 cm**-1
  28:       723.01 cm**-1
  29:       723.29 cm**-1
  30:       758.17 cm**-1
  31:       800.83 cm**-1
  32:       801.97 cm**-1
  33:       875.91 cm**-1
  34:       876.16 cm**-1
  35:       896.35 cm**-1
  36:       908.84 cm**-1
  37:       973.23 cm**-1
  38:       973.59 cm**-1
  39:       978.80 cm**-1
  40:       988.01 cm**-1
  41:      1025.54 cm**-1
  42:      1026.93 cm**-1
  43:      1030.75 cm**-1
  44:      1030.75 cm**-1
  45:      1059.72 cm**-1
  46:      1059.73 cm**-1
  47:      1061.57 cm**-1
  48:      1062.85 cm**-1
  49:      1094.49 cm**-1
  50:      1106.46 cm**-1
  51:      1112.95 cm**-1
  52:      1113.74 cm**-1
  53:      1146.66 cm**-1
  54:      1163.15 cm**-1
  55:      1163.17 cm**-1
  56:      1187.03 cm**-1
  57:      1187.17 cm**-1
  58:      1263.89 cm**-1
  59:      1290.00 cm**-1
  60:      1324.57 cm**-1
  61:      1334.81 cm**-1
  62:      1355.95 cm**-1
  63:      1356.19 cm**-1
  64:      1406.05 cm**-1
  65:      1428.66 cm**-1
  66:      1471.92 cm**-1
  67:      1510.13 cm**-1
  68:      1514.60 cm**-1
  69:      1545.35 cm**-1
  70:      1562.32 cm**-1
  71:      1647.62 cm**-1
  72:      1649.76 cm**-1
  73:      1700.18 cm**-1
  74:      1703.40 cm**-1
  75:      1705.36 cm**-1
  76:      1707.34 cm**-1
  77:      3221.05 cm**-1
  78:      3221.07 cm**-1
  79:      3226.51 cm**-1
  80:      3226.52 cm**-1
  81:      3231.07 cm**-1
  82:      3231.08 cm**-1
  83:      3237.71 cm**-1
  84:      3237.72 cm**-1
  85:      3243.59 cm**-1
  86:      3243.60 cm**-1
  87:      3298.99 cm**-1
  88:      3304.85 cm**-1
  89:      3322.69 cm**-1

IR SPECTRUM
-----------

 Mode   freq       eps      Int      T**2         TX        TY        TZ
       cm**-1   L/(mol*cm) km/mol    a.u.
----------------------------------------------------------------------------
  6:     29.96   0.000021    0.11  0.000223  ( 0.000000 -0.000000  0.014937)
  7:     44.41   0.000067    0.34  0.000471  ( 0.020051 -0.008289 -0.000000)
  8:     66.29   0.000095    0.48  0.000449  (-0.000000 -0.000000 -0.021187)
  9:     86.65   0.000098    0.50  0.000354  (-0.004503  0.018273 -0.000000)
 10:    130.92   0.000079    0.40  0.000187  ( 0.000000 -0.000000  0.013686)
 11:    144.67   0.000097    0.49  0.000210  ( 0.014130  0.003225  0.000000)
 12:    251.71   0.000035    0.18  0.000044  ( 0.000000 -0.000000  0.006610)
 13:    308.08   0.000208    1.05  0.000211  ( 0.000000  0.000000 -0.014530)
 14:    315.70   0.000061    0.31  0.000061  (-0.006693 -0.003969 -0.000000)
 15:    410.89   0.000267    1.35  0.000203  (-0.007914  0.011855 -0.000000)
 16:    426.32   0.000039    0.20  0.000028  ( 0.000001 -0.000001  0.005335)
 17:    426.55   0.000087    0.44  0.000063  (-0.007315  0.003146  0.000001)
 18:    432.39   0.000023    0.12  0.000017  ( 0.000000  0.000000 -0.004068)
 19:    448.92   0.000754    3.81  0.000524  ( 0.020657  0.009882  0.000000)
 20:    538.24   0.003967   20.05  0.002300  (-0.000000  0.000000  0.047960)
 21:    572.02   0.002418   12.22  0.001319  ( 0.032358 -0.016501  0.000000)
 22:    625.19   0.001046    5.29  0.000522  (-0.022077 -0.005891  0.000000)
 23:    625.95   0.000104    0.53  0.000052  ( 0.000001  0.000000  0.007213)
 24:    674.40   0.007216   36.47  0.003339  (-0.057049 -0.009194  0.000001)
 25:    674.90   0.001275    6.45  0.000590  ( 0.000001  0.000000  0.024285)
 26:    694.36   0.000132    0.67  0.000059  ( 0.000000 -0.000000 -0.007711)
 27:    721.82   0.003572   18.05  0.001544  ( 0.025894  0.029562  0.000002)
 28:    723.01   0.011335   57.28  0.004893  ( 0.000044 -0.000019  0.069946)
 29:    723.29   0.013188   66.65  0.005690  (-0.070134  0.027772  0.000045)
 30:    758.17   0.010418   52.65  0.004288  (-0.065403  0.003242  0.000000)
 31:    800.83   0.008144   41.16  0.003174  ( 0.000001 -0.000000  0.056335)
 32:    801.97   0.012953   65.46  0.005040  ( 0.066528 -0.024785 -0.000000)
 33:    875.91   0.000185    0.93  0.000066  ( 0.008055  0.000979  0.000000)
 34:    876.16   0.000021    0.11  0.000008  ( 0.000000  0.000000 -0.002755)
 35:    896.35   0.004402   22.24  0.001532  ( 0.039082  0.002230 -0.000000)
 36:    908.84   0.000016    0.08  0.000006  (-0.000000 -0.000000  0.002375)
 37:    973.23   0.001210    6.12  0.000388  (-0.000001  0.000002 -0.019700)
 38:    973.59   0.001611    8.14  0.000516  (-0.012725  0.018827  0.000002)
 39:    978.80   0.000880    4.45  0.000281  (-0.006077 -0.015613 -0.000000)
 40:    988.01   0.000001    0.00  0.000000  ( 0.000000  0.000000  0.000519)
 41:   1025.54   0.001367    6.91  0.000416  (-0.000386 -0.020389 -0.000000)
 42:   1026.93   0.000175    0.88  0.000053  (-0.000000  0.000000 -0.007283)
 43:   1030.75   0.000062    0.31  0.000019  (-0.004298 -0.000487  0.000002)
 44:   1030.75   0.000049    0.25  0.000015  (-0.000002 -0.000000 -0.003855)
 45:   1059.72   0.000060    0.30  0.000018  (-0.000002  0.000002 -0.004198)
 46:   1059.73   0.000006    0.03  0.000002  ( 0.000723 -0.001177 -0.000009)
 47:   1061.57   0.000415    2.10  0.000122  ( 0.000000  0.000000 -0.011040)
 48:   1062.85   0.002003   10.12  0.000588  (-0.002884 -0.024079 -0.000000)
 49:   1094.49   0.018567   93.83  0.005294  ( 0.006850  0.072435 -0.000000)
 50:   1106.46   0.000965    4.88  0.000272  (-0.000000 -0.000001 -0.016499)
 51:   1112.95   0.003976   20.09  0.001115  ( 0.032844 -0.006008  0.000005)
 52:   1113.74   0.005793   29.28  0.001623  (-0.000004  0.000001  0.040289)
 53:   1146.66   0.000575    2.91  0.000157  ( 0.000000 -0.000000  0.012515)
 54:   1163.15   0.000004    0.02  0.000001  (-0.000026 -0.000014 -0.000999)
 55:   1163.17   0.000039    0.20  0.000011  (-0.002832 -0.001579  0.000009)
 56:   1187.03   0.000009    0.04  0.000002  (-0.001125  0.001029  0.000000)
 57:   1187.17   0.000001    0.01  0.000000  ( 0.000001 -0.000001  0.000627)
 58:   1263.89   0.004029   20.36  0.000995  (-0.000599 -0.031535 -0.000000)
 59:   1290.00   0.013179   66.60  0.003188  ( 0.000614 -0.056459  0.000000)
 60:   1324.57   0.000005    0.02  0.000001  (-0.000000  0.000000 -0.001049)
 61:   1334.81   0.000456    2.31  0.000107  ( 0.010314 -0.000531 -0.000000)
 62:   1355.95   0.000633    3.20  0.000146  (-0.000007 -0.000003  0.012067)
 63:   1356.19   0.001459    7.37  0.000336  (-0.016577 -0.007807 -0.000005)
 64:   1406.05   0.002091   10.57  0.000464  ( 0.000000 -0.000000  0.021544)
 65:   1428.66   0.002032   10.27  0.000444  (-0.008982 -0.019059 -0.000000)
 66:   1471.92   0.000685    3.46  0.000145  ( 0.000000  0.000000  0.012053)
 67:   1510.13   0.002048   10.35  0.000423  (-0.019973 -0.004928 -0.000000)
 68:   1514.60   0.000937    4.74  0.000193  (-0.000000  0.000000  0.013895)
 69:   1545.35   0.014457   73.06  0.002919  (-0.000297 -0.054030 -0.000000)
 70:   1562.32   0.003707   18.73  0.000740  (-0.000000  0.000000 -0.027210)
 71:   1647.62   0.079112  399.80  0.014984  (-0.000022  0.122410 -0.000000)
 72:   1649.76   0.000311    1.57  0.000059  (-0.000000 -0.000002 -0.007668)
 73:   1700.18   0.001999   10.10  0.000367  (-0.016201 -0.010217  0.000000)
 74:   1703.40   0.001497    7.57  0.000274  ( 0.000000  0.000000  0.016563)
 75:   1705.36   0.006157   31.11  0.001127  ( 0.000088  0.033565  0.000000)
 76:   1707.34   0.000192    0.97  0.000035  ( 0.000000  0.000001 -0.005927)
 77:   3221.05   0.000097    0.49  0.000009  ( 0.000551  0.003012  0.000001)
 78:   3221.07   0.000000    0.00  0.000000  ( 0.000004  0.000022 -0.000095)
 79:   3226.51   0.000625    3.16  0.000060  (-0.007610 -0.001583  0.000056)
 80:   3226.52   0.000438    2.21  0.000042  ( 0.000066  0.000014  0.006508)
 81:   3231.07   0.001114    5.63  0.000108  ( 0.000534  0.010357  0.000142)
 82:   3231.08   0.000092    0.46  0.000009  (-0.000026 -0.000501  0.002938)
 83:   3237.71   0.000190    0.96  0.000018  ( 0.003836  0.001897 -0.000042)
 84:   3237.72   0.000139    0.70  0.000013  (-0.000045 -0.000022 -0.003654)
 85:   3243.59   0.000991    5.01  0.000095  ( 0.000289 -0.009761 -0.000022)
 86:   3243.60   0.000113    0.57  0.000011  (-0.000002  0.000064 -0.003302)
 87:   3298.99   0.016389   82.82  0.001550  ( 0.000000 -0.000000  0.039374)
 88:   3304.85   0.007526   38.04  0.000711  ( 0.000375  0.026656 -0.000000)
 89:   3322.69   0.005194   26.25  0.000488  ( 0.000000  0.000000  0.022087)

--------------------------
THERMOCHEMISTRY AT 298.15K
--------------------------

Temperature         ... 298.15 K
Pressure            ... 1.00 atm
Total Mass          ... 221.28 AMU

Throughout the following assumptions are being made:
  (1) The electronic state is orbitally nondegenerate
  (2) There are no thermally accessible electronically excited states
  (3) Hindered rotations indicated by low frequency modes are not
      treated as such but are treated as vibrations and this may
      cause some error
  (4) All equations used are the standard statistical mechanics
      equations for an ideal gas
  (5) All vibrations are strictly harmonic

freq.      29.96  E(vib)   ...       0.55
freq.      44.41  E(vib)   ...       0.53
freq.      66.29  E(vib)   ...       0.50
freq.      86.65  E(vib)   ...       0.48
freq.     130.92  E(vib)   ...       0.42
freq.     144.67  E(vib)   ...       0.41
freq.     251.71  E(vib)   ...       0.30
freq.     308.08  E(vib)   ...       0.26
freq.     315.70  E(vib)   ...       0.25
freq.     410.89  E(vib)   ...       0.19
freq.     426.32  E(vib)   ...       0.18
freq.     426.55  E(vib)   ...       0.18
freq.     432.39  E(vib)   ...       0.18
freq.     448.92  E(vib)   ...       0.17
freq.     538.24  E(vib)   ...       0.12
freq.     572.02  E(vib)   ...       0.11
freq.     625.19  E(vib)   ...       0.09
freq.     625.95  E(vib)   ...       0.09
freq.     674.40  E(vib)   ...       0.08
freq.     674.90  E(vib)   ...       0.08
freq.     694.36  E(vib)   ...       0.07
freq.     721.82  E(vib)   ...       0.07
freq.     723.01  E(vib)   ...       0.07
freq.     723.29  E(vib)   ...       0.07
freq.     758.17  E(vib)   ...       0.06
freq.     800.83  E(vib)   ...       0.05
freq.     801.97  E(vib)   ...       0.05
freq.     875.91  E(vib)   ...       0.04
freq.     876.16  E(vib)   ...       0.04
freq.     896.35  E(vib)   ...       0.03
freq.     908.84  E(vib)   ...       0.03
freq.     973.23  E(vib)   ...       0.03
freq.     973.59  E(vib)   ...       0.03
freq.     978.80  E(vib)   ...       0.03
freq.     988.01  E(vib)   ...       0.02
freq.    1025.54  E(vib)   ...       0.02
freq.    1026.93  E(vib)   ...       0.02
freq.    1030.75  E(vib)   ...       0.02
freq.    1030.75  E(vib)   ...       0.02
freq.    1059.72  E(vib)   ...       0.02
freq.    1059.73  E(vib)   ...       0.02
freq.    1061.57  E(vib)   ...       0.02
freq.    1062.85  E(vib)   ...       0.02
freq.    1094.49  E(vib)   ...       0.02
freq.    1106.46  E(vib)   ...       0.02
freq.    1112.95  E(vib)   ...       0.01
freq.    1113.74  E(vib)   ...       0.01
freq.    1146.66  E(vib)   ...       0.01
freq.    1163.15  E(vib)   ...       0.01
freq.    1163.17  E(vib)   ...       0.01
freq.    1187.03  E(vib)   ...       0.01
freq.    1187.17  E(vib)   ...       0.01
freq.    1263.89  E(vib)   ...       0.01
freq.    1290.00  E(vib)   ...       0.01
freq.    1324.57  E(vib)   ...       0.01
freq.    1334.81  E(vib)   ...       0.01
freq.    1355.95  E(vib)   ...       0.01
freq.    1356.19  E(vib)   ...       0.01
freq.    1406.05  E(vib)   ...       0.00
freq.    1428.66  E(vib)   ...       0.00
freq.    1471.92  E(vib)   ...       0.00
freq.    1510.13  E(vib)   ...       0.00
freq.    1514.60  E(vib)   ...       0.00
freq.    1545.35  E(vib)   ...       0.00
freq.    1562.32  E(vib)   ...       0.00
freq.    1647.62  E(vib)   ...       0.00
freq.    1649.76  E(vib)   ...       0.00
freq.    1700.18  E(vib)   ...       0.00
freq.    1703.40  E(vib)   ...       0.00
freq.    1705.36  E(vib)   ...       0.00
freq.    1707.34  E(vib)   ...       0.00
freq.    3221.05  E(vib)   ...       0.00
freq.    3221.07  E(vib)   ...       0.00
freq.    3226.51  E(vib)   ...       0.00
freq.    3226.52  E(vib)   ...       0.00
freq.    3231.07  E(vib)   ...       0.00
freq.    3231.08  E(vib)   ...       0.00
freq.    3237.71  E(vib)   ...       0.00
freq.    3237.72  E(vib)   ...       0.00
freq.    3243.59  E(vib)   ...       0.00
freq.    3243.60  E(vib)   ...       0.00
freq.    3298.99  E(vib)   ...       0.00
freq.    3304.85  E(vib)   ...       0.00
freq.    3322.69  E(vib)   ...       0.00

------------
INNER ENERGY
------------

The inner energy is: U= E(el) + E(ZPE) + E(vib) + E(rot) + E(trans)
    E(el)   - is the total energy from the electronic structure calculation
              = E(kin-el) + E(nuc-el) + E(el-el) + E(nuc-nuc)
    E(ZPE)  - the the zero temperature vibrational energy from the frequency calculation
    E(vib)  - the the finite temperature correction to E(ZPE) due to population
              of excited vibrational states
    E(rot)  - is the rotational thermal energy
    E(trans)- is the translational thermal energy

Summary of contributions to the inner energy U:
Electronic energy                ...   -688.11903716 Eh
Zero point energy                ...      0.24897120 Eh     156.23 kcal/mol
Thermal vibrational correction   ...      0.00984778 Eh       6.18 kcal/mol
Thermal rotational correction    ...      0.00141627 Eh       0.89 kcal/mol
Thermal translational correction ...      0.00141627 Eh       0.89 kcal/mol
-----------------------------------------------------------------------
Total thermal energy                   -687.85738563 Eh

Summary of corrections to the electronic energy:
(perhaps to be used in another calculation)
Total thermal correction                  0.01268032 Eh       7.96 kcal/mol
Non-thermal (ZPE) correction              0.24897120 Eh     156.23 kcal/mol
-----------------------------------------------------------------------
Total correction                          0.26165152 Eh     164.19 kcal/mol

--------
ENTHALPY
--------

The enthalpy is H = U + kB*T
                kB is Boltzmann's constant
Total free energy                 ...   -687.85738563 Eh
Thermal Enthalpy correction       ...      0.00094421 Eh       0.59 kcal/mol
-----------------------------------------------------------------------
Total Enthalpy                    ...   -687.85644142 Eh

Note: Rotational entropy computed according to Herzberg
Infrared and Raman Spectra, Chapter V,1, Van Nostrand Reinhold, 1945
Point Group:  C2, Symmetry Number:   2
Rotational constants in cm-1:     0.052775     0.006755     0.006435

Vibrational entropy computed according to the QRRHO of S. Grimme
Chem.Eur.J. 2012 18 9955

-------
ENTROPY
-------

The entropy contributions are T*S = T*(S(el)+S(vib)+S(rot)+S(trans))
     S(el)   - electronic entropy
     S(vib)  - vibrational entropy

                             ****ORCA TERMINATED NORMALLY****
TOTAL RUN TIME: 0 days 0 hours 23 minutes 47 seconds 528 msec
