                         Program Version 5.0.4 -  RELEASE  -
|  1> # ORCA 5.0.4 - /users/bwb16179/postgrad/2024_02/Carbene_DFT_validation/8.inp # write input file
|  2> # Basic Mode
|  3> #
|  4> ! Opt Freq wB97X Def2-SVP D4 SlowConv TightSCF Defgrid2 Def2/J RIJCOSX CPCM(Water)
|  5>
|  6> %PAL NPROCS 4 END
|  7>
|  8> %maxcore 4500
|  9>
| 10> %geom
| 11> Maxiter 150
| 12> END
| 13>
| 14> * xyzfile 1 1 8_prot.xyz
| 15>
| 16>                          ****END OF INPUT****
 Total Charge           Charge          ....    1
 Multiplicity           Mult            ....    1
 Number of Electrons    NEL             ....  148
Dispersion correction           -0.008973078
FINAL SINGLE POINT ENERGY      -845.158303513842
Dispersion correction            ... Starting D4
Dispersion correction           -0.009197457
FINAL SINGLE POINT ENERGY      -845.210415307501
Dispersion correction            ... Starting D4
Dispersion correction           -0.009391989
FINAL SINGLE POINT ENERGY      -845.237982526247
Dispersion correction            ... Starting D4
FINAL SINGLE POINT ENERGY      -845.243055835467
FINAL SINGLE POINT ENERGY      -845.244201098258
FINAL SINGLE POINT ENERGY      -845.244694201015
FINAL SINGLE POINT ENERGY      -845.244812309202
FINAL SINGLE POINT ENERGY      -845.244849106175
FINAL SINGLE POINT ENERGY      -845.244865897658
FINAL SINGLE POINT ENERGY      -845.244878205256
FINAL SINGLE POINT ENERGY      -845.245627539674
FINAL SINGLE POINT ENERGY      -845.245730585675
FINAL SINGLE POINT ENERGY      -845.245822671480
FINAL SINGLE POINT ENERGY      -845.245862837322
FINAL SINGLE POINT ENERGY      -845.245880676404
FINAL SINGLE POINT ENERGY      -845.245889108239
FINAL SINGLE POINT ENERGY      -845.245899790173
Dispersion correction           -0.009503569
FINAL SINGLE POINT ENERGY      -845.245907565344
Dispersion correction            ... Starting D4
Dispersion correction           -0.009504030
FINAL SINGLE POINT ENERGY      -845.245911676515
Dispersion correction            ... Starting D4
                    ***********************HURRAY********************

CARTESIAN COORDINATES (ANGSTROEM)
---------------------------------
  C      0.152898   -1.146111    0.037698
  N     -0.936256   -0.383530    0.105095
  C     -0.551267    0.944573    0.108597
  C      0.806188    0.962115    0.041292
  N      1.223176   -0.355423   -0.002184
  C     -2.291801   -0.875047    0.155834
  C     -2.929699   -1.178706   -1.054091
  C     -4.242952   -1.652341   -0.978790
  C     -4.874626   -1.808069    0.252865
  C     -4.208967   -1.494866    1.436060
  C     -2.895219   -1.018659    1.412432
  C     -2.228577   -1.011273   -2.376284
  H     -1.417608   -1.748853   -2.493551
  H     -1.777934   -0.011023   -2.472334
  H     -2.934236   -1.153276   -3.205582
  C     -2.158464   -0.674687    2.679648
  H     -1.207189   -1.225446    2.753853
  H     -2.768228   -0.922838    3.558481
  H     -1.918522    0.399763    2.723099
  C      2.590003   -0.811578   -0.076916
  C      3.181236   -0.918137   -1.342866
  C      4.506362   -1.360086   -1.390474
  C      5.194517   -1.675482   -0.220886
  C      4.574372   -1.556899    1.020897
  C      3.250374   -1.119102    1.119848
  C      2.421747   -0.568358   -2.594975
  H      3.025439   -0.788539   -3.485340
  H      2.159959    0.501730   -2.615505
  H      1.480772   -1.136670   -2.668110
  C      2.561004   -0.990542    2.452493
  H      2.103559    0.003567    2.576656
  H      3.275796   -1.145989    3.271480
  H      1.756664   -1.736776    2.558975
  H     -4.773216   -1.898143   -1.903295
  H     -5.902801   -2.178567    0.291380
  H     -4.711273   -1.619066    2.399653
  H      6.231358   -2.018452   -0.277874
  H      5.122229   -1.805121    1.934425
  H      4.999727   -1.455450   -2.361933
  H     -1.280214    1.751099    0.160044
  H      1.514883    1.787792    0.020292
  H      0.166324   -2.236755    0.017560

 Multiplicity           Mult            ....    1
 Number of Electrons    NEL             ....  148
 Basis Dimension        Dim             ....  399

ORBITAL ENERGIES
----------------

  NO   OCC          E(Eh)            E(eV)
   0   2.0000     -14.523645      -395.2085
   1   2.0000     -14.523623      -395.2079
   2   2.0000     -10.396934      -282.9150
   3   2.0000     -10.344117      -281.4777
   4   2.0000     -10.343529      -281.4617
   5   2.0000     -10.333254      -281.1821
   6   2.0000     -10.333209      -281.1809
   7   2.0000     -10.304716      -280.4056
   8   2.0000     -10.304704      -280.4052
   9   2.0000     -10.304573      -280.4017
  10   2.0000     -10.304516      -280.4001
  11   2.0000     -10.288415      -279.9620
  12   2.0000     -10.288378      -279.9610
  13   2.0000     -10.283449      -279.8269
  14   2.0000     -10.283421      -279.8261
  15   2.0000     -10.283411      -279.8258
  16   2.0000     -10.283386      -279.8252
  17   2.0000     -10.278195      -279.6839
  18   2.0000     -10.278142      -279.6825
  19   2.0000     -10.278051      -279.6800
  20   2.0000     -10.277973      -279.6779
  21   2.0000      -1.228209       -33.4213
  22   2.0000      -1.112525       -30.2733
  23   2.0000      -1.016606       -27.6632
  24   2.0000      -0.997169       -27.1344
  25   2.0000      -0.940837       -25.6015
  26   2.0000      -0.925748       -25.1909
  27   2.0000      -0.925312       -25.1790
  28   2.0000      -0.912919       -24.8418
  29   2.0000      -0.890143       -24.2220
  30   2.0000      -0.850283       -23.1374
  31   2.0000      -0.829021       -22.5588
  32   2.0000      -0.811519       -22.0826
  33   2.0000      -0.810428       -22.0529
  34   2.0000      -0.786095       -21.3907
  35   2.0000      -0.785667       -21.3791
  36   2.0000      -0.736417       -20.0389
  37   2.0000      -0.728889       -19.8341
  38   2.0000      -0.715186       -19.4612
  39   2.0000      -0.711822       -19.3697
  40   2.0000      -0.683320       -18.5941
  41   2.0000      -0.648092       -17.6355
  42   2.0000      -0.643306       -17.5052
  43   2.0000      -0.613720       -16.7002
  44   2.0000      -0.612369       -16.6634
  45   2.0000      -0.591691       -16.1007
  46   2.0000      -0.590781       -16.0760
  47   2.0000      -0.582412       -15.8482
  48   2.0000      -0.575595       -15.6627
  49   2.0000      -0.575212       -15.6523
  50   2.0000      -0.547363       -14.8945
  51   2.0000      -0.545743       -14.8504
  52   2.0000      -0.539786       -14.6883
  53   2.0000      -0.538670       -14.6579
  54   2.0000      -0.531279       -14.4568
  55   2.0000      -0.527953       -14.3663
  56   2.0000      -0.524781       -14.2800
  57   2.0000      -0.524742       -14.2790
  58   2.0000      -0.517493       -14.0817
  59   2.0000      -0.515266       -14.0211
  60   2.0000      -0.487928       -13.2772
  61   2.0000      -0.485475       -13.2104
  62   2.0000      -0.477472       -12.9927
  63   2.0000      -0.472312       -12.8523
  64   2.0000      -0.470187       -12.7944
  65   2.0000      -0.461941       -12.5701
  66   2.0000      -0.458495       -12.4763
  67   2.0000      -0.458150       -12.4669
  68   2.0000      -0.432953       -11.7812
  69   2.0000      -0.384611       -10.4658
  70   2.0000      -0.364943        -9.9306
  71   2.0000      -0.361275        -9.8308
  72   2.0000      -0.348213        -9.4753
  73   2.0000      -0.347566        -9.4578
  74   0.0000       0.043527         1.1844
  75   0.0000       0.045623         1.2415
  76   0.0000       0.053803         1.4640
  77   0.0000       0.062355         1.6968
  78   0.0000       0.062624         1.7041

MULLIKEN ATOMIC CHARGES
-----------------------
   0 C :    0.258385
   1 N :   -0.188806
   2 C :    0.087977
   3 C :    0.088299
   4 N :   -0.188817
   5 C :    0.012321
   6 C :   -0.078107
   7 C :   -0.087194
   8 C :    0.020102
   9 C :   -0.088404
  10 C :   -0.077058
  11 C :    0.058914
  12 H :    0.070874
  13 H :    0.057487
  14 H :    0.050678
  15 C :    0.062622
  16 H :    0.058658
  17 H :    0.050029
  18 H :    0.066315
  19 C :    0.011924
  20 C :   -0.077070
  21 C :   -0.088312
  22 C :    0.020007
  23 C :   -0.087329
  24 C :   -0.077934
  25 C :    0.062790
  26 H :    0.050111
  27 H :    0.066638
  28 H :    0.058083
  29 C :    0.059020
  30 H :    0.058209
  31 H :    0.050479
  32 H :    0.070060
  33 H :    0.032427
  34 H :    0.045173
  35 H :    0.032508
  36 H :    0.045219
  37 H :    0.032433
  38 H :    0.032568
  39 H :    0.111340
  40 H :    0.111224
  41 H :    0.146158
Sum of atomic charges:    1.0000000

LOEWDIN ATOMIC CHARGES
----------------------
   0 C :    0.146846
   1 N :    0.112995
   2 C :    0.031343
   3 C :    0.031428
   4 N :    0.113051
   5 C :   -0.010033
   6 C :   -0.013805
   7 C :   -0.036606
   8 C :   -0.009195
   9 C :   -0.036718
  10 C :   -0.013631
  11 C :   -0.052527
  12 H :    0.047511
  13 H :    0.043056
  14 H :    0.044524
  15 C :   -0.051986
  16 H :    0.043817
  17 H :    0.044141
  18 H :    0.046665
  19 C :   -0.010097
  20 C :   -0.013639
  21 C :   -0.036752
  22 C :   -0.009175
  23 C :   -0.036688
  24 C :   -0.013795
  25 C :   -0.051966
  26 H :    0.044180
  27 H :    0.046908
  28 H :    0.043497
  29 C :   -0.052432
  30 H :    0.043386
  31 H :    0.044402
  32 H :    0.047302
  33 H :    0.042712
  34 H :    0.045932
  35 H :    0.042714
  36 H :    0.045941
  37 H :    0.042716
  38 H :    0.042744
  39 H :    0.066861
  40 H :    0.066864
  41 H :    0.077506

  Mayer bond orders larger than 0.100000
B(  0-C ,  1-N ) :   1.3358 B(  0-C ,  4-N ) :   1.3360 B(  0-C , 41-H ) :   0.9667
B(  1-N ,  2-C ) :   1.1431 B(  1-N ,  5-C ) :   0.8885 B(  2-C ,  3-C ) :   1.5950
B(  2-C , 39-H ) :   0.9883 B(  3-C ,  4-N ) :   1.1431 B(  3-C , 40-H ) :   0.9883
B(  4-N , 19-C ) :   0.8888 B(  5-C ,  6-C ) :   1.4235 B(  5-C , 10-C ) :   1.4210
B(  6-C ,  7-C ) :   1.3974 B(  6-C , 11-C ) :   1.0485 B(  7-C ,  8-C ) :   1.3829
B(  7-C , 33-H ) :   0.9942 B(  8-C ,  9-C ) :   1.3802 B(  8-C , 34-H ) :   0.9937
B(  9-C , 10-C ) :   1.4002 B(  9-C , 35-H ) :   0.9941 B( 10-C , 15-C ) :   1.0478
B( 11-C , 12-H ) :   0.9515 B( 11-C , 13-H ) :   0.9567 B( 11-C , 14-H ) :   0.9544
B( 15-C , 16-H ) :   0.9558 B( 15-C , 17-H ) :   0.9554 B( 15-C , 18-H ) :   0.9518
B( 19-C , 20-C ) :   1.4213 B( 19-C , 24-C ) :   1.4233 B( 20-C , 21-C ) :   1.3997
B( 20-C , 25-C ) :   1.0478 B( 21-C , 22-C ) :   1.3807 B( 21-C , 38-H ) :   0.9941
B( 22-C , 23-C ) :   1.3825 B( 22-C , 36-H ) :   0.9936 B( 23-C , 24-C ) :   1.3978
B( 23-C , 37-H ) :   0.9942 B( 24-C , 29-C ) :   1.0480 B( 25-C , 26-H ) :   0.9553
B( 25-C , 27-H ) :   0.9520 B( 25-C , 28-H ) :   0.9555 B( 29-C , 30-H ) :   0.9564
B( 29-C , 31-H ) :   0.9547 B( 29-C , 32-H ) :   0.9520

Dispersion correction           -0.009504515
FINAL SINGLE POINT ENERGY      -845.245912584354

DIPOLE MOMENT
-------------
                                X             Y             Z
Electronic contribution:     -0.01007       0.71659       0.02181
Nuclear contribution   :      0.00295      -0.09414      -0.00637
                        -----------------------------------------
Total Dipole Moment    :     -0.00712       0.62245       0.01544
                        -----------------------------------------
Magnitude (a.u.)       :      0.62268
Magnitude (Debye)      :      1.58274

Dispersion correction in the Hessian             ... Starting D4

VIBRATIONAL FREQUENCIES
-----------------------

Scaling factor for frequencies =  1.000000000  (already applied!)

   0:         0.00 cm**-1
   1:         0.00 cm**-1
   2:         0.00 cm**-1
   3:         0.00 cm**-1
   4:         0.00 cm**-1
   5:         0.00 cm**-1
   6:        21.12 cm**-1
   7:        24.19 cm**-1
   8:        54.16 cm**-1
   9:        70.09 cm**-1
  10:        89.13 cm**-1
  11:        90.82 cm**-1
  12:       122.56 cm**-1
  13:       141.70 cm**-1
  14:       145.92 cm**-1
  15:       153.02 cm**-1
  16:       156.61 cm**-1
  17:       199.53 cm**-1
  18:       210.42 cm**-1
  19:       238.48 cm**-1
  20:       239.15 cm**-1
  21:       284.20 cm**-1
  22:       303.20 cm**-1
  23:       334.56 cm**-1
  24:       357.14 cm**-1
  25:       359.48 cm**-1
  26:       394.13 cm**-1
  27:       427.31 cm**-1
  28:       483.23 cm**-1
  29:       494.05 cm**-1
  30:       538.88 cm**-1
  31:       539.27 cm**-1
  32:       541.24 cm**-1
  33:       545.89 cm**-1
  34:       569.69 cm**-1
  35:       593.70 cm**-1
  36:       595.71 cm**-1
  37:       620.44 cm**-1
  38:       692.31 cm**-1
  39:       693.68 cm**-1
  40:       768.43 cm**-1
  41:       769.55 cm**-1
  42:       776.29 cm**-1
  43:       776.55 cm**-1
  44:       784.04 cm**-1
  45:       811.66 cm**-1
  46:       812.11 cm**-1
  47:       899.67 cm**-1
  48:       914.25 cm**-1
  49:       945.20 cm**-1
  50:       945.63 cm**-1
  51:       946.72 cm**-1
  52:       947.75 cm**-1
  53:       971.17 cm**-1
  54:       981.14 cm**-1
  55:      1011.71 cm**-1
  56:      1012.43 cm**-1
  57:      1041.33 cm**-1
  58:      1041.77 cm**-1
  59:      1058.30 cm**-1
  60:      1058.47 cm**-1
  61:      1062.10 cm**-1
  62:      1063.12 cm**-1
  63:      1065.58 cm**-1
  64:      1066.12 cm**-1
  65:      1081.20 cm**-1
  66:      1094.66 cm**-1
  67:      1111.67 cm**-1
  68:      1122.63 cm**-1
  69:      1147.66 cm**-1
  70:      1175.71 cm**-1
  71:      1177.26 cm**-1
  72:      1246.83 cm**-1
  73:      1263.46 cm**-1
  74:      1282.43 cm**-1
  75:      1283.51 cm**-1
  76:      1300.58 cm**-1
  77:      1308.78 cm**-1
  78:      1332.66 cm**-1
  79:      1333.17 cm**-1
  80:      1382.90 cm**-1
  81:      1395.85 cm**-1
  82:      1396.47 cm**-1
  83:      1403.24 cm**-1
  84:      1407.80 cm**-1
  85:      1425.71 cm**-1
  86:      1441.50 cm**-1
  87:      1444.01 cm**-1
  88:      1449.58 cm**-1
  89:      1450.21 cm**-1
  90:      1452.56 cm**-1
  91:      1453.45 cm**-1
  92:      1453.86 cm**-1
  93:      1455.28 cm**-1
  94:      1474.79 cm**-1
  95:      1527.59 cm**-1
  96:      1535.89 cm**-1
  97:      1536.33 cm**-1
  98:      1550.55 cm**-1
  99:      1644.89 cm**-1
 100:      1645.39 cm**-1
 101:      1695.12 cm**-1
 102:      1695.76 cm**-1
 103:      1707.62 cm**-1
 104:      1708.43 cm**-1
 105:      3067.47 cm**-1
 106:      3067.81 cm**-1
 107:      3068.65 cm**-1
 108:      3069.38 cm**-1
 109:      3156.17 cm**-1
 110:      3156.60 cm**-1
 111:      3156.99 cm**-1
 112:      3157.63 cm**-1
 113:      3191.94 cm**-1
 114:      3192.27 cm**-1
 115:      3192.86 cm**-1
 116:      3192.89 cm**-1
 117:      3214.40 cm**-1
 118:      3214.42 cm**-1
 119:      3221.91 cm**-1
 120:      3222.02 cm**-1
 121:      3233.64 cm**-1
 122:      3233.71 cm**-1
 123:      3296.71 cm**-1
 124:      3300.90 cm**-1
 125:      3319.28 cm**-1

IR SPECTRUM
-----------

 Mode   freq       eps      Int      T**2         TX        TY        TZ
       cm**-1   L/(mol*cm) km/mol    a.u.
----------------------------------------------------------------------------
  6:     21.12   0.000057    0.29  0.000843  ( 0.004408 -0.012610 -0.025783)
  7:     24.19   0.000044    0.22  0.000571  ( 0.000870  0.008874 -0.022169)
  8:     54.16   0.000103    0.52  0.000596  (-0.000567  0.024395 -0.000598)
  9:     70.09   0.000010    0.05  0.000046  (-0.005000  0.000894  0.004454)
 10:     89.13   0.000005    0.03  0.000018  ( 0.002239 -0.003542  0.000882)
 11:     90.82   0.000015    0.07  0.000051  ( 0.006495 -0.001875  0.002294)
 12:    122.56   0.000394    1.99  0.001004  (-0.002875  0.031554  0.000078)
 13:    141.70   0.000106    0.54  0.000234  (-0.013188 -0.007683  0.000994)
 14:    145.92   0.000038    0.19  0.000082  ( 0.001746 -0.008573 -0.002373)
 15:    153.02   0.000016    0.08  0.000033  (-0.001302  0.002309  0.005097)
 16:    156.61   0.000180    0.91  0.000360  (-0.000484 -0.018943  0.000773)
 17:    199.53   0.000088    0.45  0.000138  ( 0.011234 -0.000470  0.003446)
 18:    210.42   0.000084    0.42  0.000124  (-0.000676 -0.011111 -0.000379)
 19:    238.48   0.000002    0.01  0.000002  (-0.000425 -0.001206 -0.000705)
 20:    239.15   0.000006    0.03  0.000007  (-0.000880  0.000532 -0.002531)
 21:    284.20   0.000017    0.09  0.000019  ( 0.004318  0.000415  0.000497)
 22:    303.20   0.000002    0.01  0.000002  ( 0.000296  0.000357 -0.001473)
 23:    334.56   0.003600   18.19  0.003358  (-0.000712  0.057939  0.000434)
 24:    357.14   0.001347    6.81  0.001177  ( 0.000235 -0.034312 -0.000278)
 25:    359.48   0.000620    3.13  0.000538  ( 0.000489 -0.023189 -0.000280)
 26:    394.13   0.000058    0.29  0.000046  ( 0.004661  0.000547  0.004857)
 27:    427.31   0.001742    8.80  0.001272  (-0.035662 -0.000483  0.000009)
 28:    483.23   0.000329    1.66  0.000212  ( 0.000634  0.000196 -0.014559)
 29:    494.05   0.000000    0.00  0.000000  ( 0.000104  0.000253  0.000136)
 30:    538.88   0.000093    0.47  0.000054  (-0.000234 -0.000483  0.007326)
 31:    539.27   0.000033    0.17  0.000019  (-0.000222 -0.000030  0.004344)
 32:    541.24   0.001070    5.41  0.000617  (-0.000518  0.000289 -0.024826)
 33:    545.89   0.000006    0.03  0.000003  (-0.000084  0.001801 -0.000119)
 34:    569.69   0.000680    3.43  0.000372  ( 0.000349 -0.019289 -0.000237)
 35:    593.70   0.000008    0.04  0.000004  ( 0.000111 -0.002098 -0.000074)
 36:    595.71   0.000360    1.82  0.000189  ( 0.013728  0.000423  0.000437)
 37:    620.44   0.000128    0.65  0.000064  ( 0.008013  0.000130  0.000296)
 38:    692.31   0.013186   66.64  0.005944  (-0.001451  0.001146 -0.077073)
 39:    693.68   0.000028    0.14  0.000013  (-0.000415  0.003109 -0.001686)
 40:    768.43   0.000039    0.20  0.000016  (-0.000183 -0.002906 -0.002729)
 41:    769.55   0.008966   45.31  0.003636  (-0.002553  0.001198 -0.060231)
 42:    776.29   0.000121    0.61  0.000049  ( 0.003491  0.006013  0.000491)
 43:    776.55   0.000192    0.97  0.000077  (-0.008324  0.002430  0.001463)
 44:    784.04   0.000053    0.27  0.000021  (-0.004477 -0.000678  0.000726)
 45:    811.66   0.017536   88.62  0.006742  (-0.003234 -0.082033 -0.001565)
 46:    812.11   0.002811   14.21  0.001080  ( 0.029759 -0.011367  0.008089)
 47:    899.67   0.005564   28.12  0.001930  ( 0.001860 -0.000800  0.043883)
 48:    914.25   0.000001    0.01  0.000000  ( 0.000316 -0.000605 -0.000036)
 49:    945.20   0.000012    0.06  0.000004  ( 0.000012 -0.000278  0.001943)
 50:    945.63   0.000203    1.02  0.000067  (-0.001136  0.001350  0.007983)
 51:    946.72   0.000064    0.32  0.000021  (-0.000117  0.004009  0.002232)
 52:    947.75   0.000827    4.18  0.000272  ( 0.000161  0.001399 -0.016437)
 53:    971.17   0.003587   18.13  0.001153  ( 0.033930  0.000382 -0.001084)
 54:    981.14   0.000027    0.13  0.000008  ( 0.000031 -0.002906 -0.000163)
 55:   1011.71   0.001206    6.09  0.000372  ( 0.018368  0.005876 -0.000279)
 56:   1012.43   0.000817    4.13  0.000252  (-0.014158  0.007097  0.000963)
 57:   1041.33   0.000432    2.18  0.000129  (-0.001877  0.010749  0.003210)
 58:   1041.77   0.000450    2.27  0.000135  (-0.001409 -0.011228  0.002603)
 59:   1058.30   0.001355    6.85  0.000400  (-0.001435 -0.019858  0.001786)
 60:   1058.47   0.000675    3.41  0.000199  (-0.002296  0.013751  0.002122)
 61:   1062.10   0.001891    9.56  0.000556  (-0.007346  0.021006  0.007779)
 62:   1063.12   0.001853    9.36  0.000544  (-0.005719 -0.021896  0.005628)
 63:   1065.58   0.000436    2.20  0.000128  ( 0.000404  0.010689 -0.003628)
 64:   1066.12   0.000715    3.61  0.000209  ( 0.000076 -0.001559 -0.014385)
 65:   1081.20   0.007610   38.46  0.002196  ( 0.046843  0.000241 -0.001422)
 66:   1094.66   0.004418   22.33  0.001259  (-0.000456 -0.035477 -0.000824)
 67:   1111.67   0.000066    0.33  0.000018  ( 0.001833 -0.003878 -0.000239)
 68:   1122.63   0.010471   52.92  0.002911  ( 0.053911  0.000684 -0.001947)
 69:   1147.66   0.000162    0.82  0.000044  ( 0.001098 -0.006539 -0.000392)
 70:   1175.71   0.000973    4.92  0.000258  ( 0.000294 -0.000834 -0.016045)
 71:   1177.26   0.001022    5.17  0.000271  (-0.000366  0.001153 -0.016415)
 72:   1246.83   0.012419   62.76  0.003108  ( 0.055674  0.000805 -0.002855)
 73:   1263.46   0.008307   41.98  0.002052  ( 0.045256  0.000435 -0.001842)
 74:   1282.43   0.000011    0.05  0.000003  (-0.000344  0.000021 -0.001566)
 75:   1283.51   0.000009    0.05  0.000002  ( 0.000240 -0.000048  0.001452)
 76:   1300.58   0.000012    0.06  0.000003  (-0.000391  0.001676  0.000147)
 77:   1308.78   0.001614    8.15  0.000385  ( 0.019589  0.000080 -0.001008)
 78:   1332.66   0.000245    1.24  0.000057  ( 0.000193 -0.002437 -0.007167)
 79:   1333.17   0.008055   40.71  0.001886  (-0.000957  0.000880 -0.043403)
 80:   1382.90   0.000840    4.24  0.000189  ( 0.000160  0.013752  0.000560)
 81:   1395.85   0.000147    0.74  0.000033  ( 0.005400  0.000851 -0.001737)
 82:   1396.47   0.000059    0.30  0.000013  (-0.003042  0.001795  0.000827)
 83:   1403.24   0.001376    6.95  0.000306  ( 0.017359 -0.000042 -0.002142)
 84:   1407.80   0.000025    0.13  0.000006  (-0.001039 -0.002101 -0.000187)
 85:   1425.71   0.000319    1.61  0.000070  (-0.008065 -0.000009 -0.002188)
 86:   1441.50   0.001462    7.39  0.000316  ( 0.000542  0.017779  0.000092)
 87:   1444.01   0.002491   12.59  0.000538  (-0.022950  0.001293 -0.003142)
 88:   1449.58   0.000530    2.68  0.000114  ( 0.000188  0.008892  0.005913)
 89:   1450.21   0.004455   22.51  0.000959  ( 0.008108  0.004321 -0.029566)
 90:   1452.56   0.005458   27.58  0.001173  (-0.004797 -0.033710 -0.003636)
 91:   1453.45   0.005547   28.03  0.001191  (-0.017600  0.029412 -0.004009)
 92:   1453.86   0.000130    0.66  0.000028  ( 0.005053  0.001020 -0.001188)
 93:   1455.28   0.003093   15.63  0.000663  (-0.016107 -0.019461 -0.005018)
 94:   1474.79   0.000540    2.73  0.000114  ( 0.000096 -0.010674 -0.000483)
 95:   1527.59   0.012565   63.50  0.002567  (-0.050655 -0.000722  0.000588)
 96:   1535.89   0.000428    2.16  0.000087  (-0.000582  0.003333  0.008685)
 97:   1536.33   0.011018   55.68  0.002238  ( 0.000993  0.001156 -0.047284)
 98:   1550.55   0.003243   16.39  0.000653  ( 0.000551 -0.025532 -0.000747)
 99:   1644.89   0.002929   14.80  0.000556  ( 0.019547 -0.013106 -0.001364)
100:   1645.39   0.053912  272.45  0.010225  (-0.100909 -0.003957  0.005156)
101:   1695.12   0.002669   13.49  0.000491  ( 0.022149  0.000148 -0.000839)
102:   1695.76   0.000272    1.37  0.000050  ( 0.000057  0.007061  0.000310)
103:   1707.62   0.000034    0.17  0.000006  (-0.000137  0.002501  0.000137)
104:   1708.43   0.006310   31.89  0.001153  ( 0.000985 -0.000328  0.033935)
105:   3067.47   0.007044   35.60  0.000717  (-0.004949 -0.001700  0.026253)
106:   3067.81   0.000438    2.21  0.000045  ( 0.002073 -0.003597 -0.005223)
107:   3068.65   0.001555    7.86  0.000158  ( 0.011953 -0.003732  0.001137)
108:   3069.38   0.003096   15.64  0.000315  (-0.015433 -0.003063 -0.008195)
109:   3156.17   0.001816    9.18  0.000180  ( 0.002776  0.013071 -0.000989)
110:   3156.60   0.001895    9.57  0.000187  ( 0.000846  0.013472  0.002257)
111:   3156.99   0.000429    2.17  0.000042  ( 0.004962 -0.002989  0.002969)
112:   3157.63   0.000612    3.09  0.000060  (-0.005478  0.005099 -0.002111)
113:   3191.94   0.002060   10.41  0.000201  (-0.008677 -0.003605 -0.010638)
114:   3192.27   0.001642    8.30  0.000161  ( 0.007023 -0.004127  0.009705)
115:   3192.86   0.003154   15.94  0.000308  ( 0.013230  0.001310 -0.011466)
116:   3192.89   0.000742    3.75  0.000073  (-0.005848  0.002764  0.005543)
117:   3214.40   0.000068    0.34  0.000007  ( 0.002547  0.000035 -0.000355)
118:   3214.42   0.000012    0.06  0.000001  ( 0.000199 -0.001074  0.000115)
119:   3221.91   0.001440    7.28  0.000140  (-0.000394 -0.000749 -0.011781)
120:   3222.02   0.001453    7.34  0.000141  ( 0.000406 -0.000902  0.011822)
121:   3233.64   0.001850    9.35  0.000179  (-0.012958  0.003120  0.000960)
122:   3233.71   0.001266    6.40  0.000122  ( 0.010163  0.004299 -0.000657)
123:   3296.71   0.015227   76.95  0.001441  ( 0.000561 -0.037955 -0.000733)
124:   3300.90   0.007681   38.82  0.000726  ( 0.026918  0.000294 -0.001224)
125:   3319.28   0.004018   20.31  0.000378  (-0.000052  0.019433  0.000374)

--------------------------
THERMOCHEMISTRY AT 298.15K
--------------------------

Temperature         ... 298.15 K
Pressure            ... 1.00 atm
Total Mass          ... 277.39 AMU

Throughout the following assumptions are being made:
  (1) The electronic state is orbitally nondegenerate
  (2) There are no thermally accessible electronically excited states
  (3) Hindered rotations indicated by low frequency modes are not
      treated as such but are treated as vibrations and this may
      cause some error
  (4) All equations used are the standard statistical mechanics
      equations for an ideal gas
  (5) All vibrations are strictly harmonic

freq.      21.12  E(vib)   ...       0.56
freq.      24.19  E(vib)   ...       0.56
freq.      54.16  E(vib)   ...       0.52
freq.      70.09  E(vib)   ...       0.50
freq.      89.13  E(vib)   ...       0.47
freq.      90.82  E(vib)   ...       0.47
freq.     122.56  E(vib)   ...       0.43
freq.     141.70  E(vib)   ...       0.41
freq.     145.92  E(vib)   ...       0.41
freq.     153.02  E(vib)   ...       0.40
freq.     156.61  E(vib)   ...       0.40
freq.     199.53  E(vib)   ...       0.35
freq.     210.42  E(vib)   ...       0.34
freq.     238.48  E(vib)   ...       0.32
freq.     239.15  E(vib)   ...       0.31
freq.     284.20  E(vib)   ...       0.28
freq.     303.20  E(vib)   ...       0.26
freq.     334.56  E(vib)   ...       0.24
freq.     357.14  E(vib)   ...       0.22
freq.     359.48  E(vib)   ...       0.22
freq.     394.13  E(vib)   ...       0.20
freq.     427.31  E(vib)   ...       0.18
freq.     483.23  E(vib)   ...       0.15
freq.     494.05  E(vib)   ...       0.14
freq.     538.88  E(vib)   ...       0.12
freq.     539.27  E(vib)   ...       0.12
freq.     541.24  E(vib)   ...       0.12
freq.     545.89  E(vib)   ...       0.12
freq.     569.69  E(vib)   ...       0.11
freq.     593.70  E(vib)   ...       0.10
freq.     595.71  E(vib)   ...       0.10
freq.     620.44  E(vib)   ...       0.09
freq.     692.31  E(vib)   ...       0.07
freq.     693.68  E(vib)   ...       0.07
freq.     768.43  E(vib)   ...       0.06
freq.     769.55  E(vib)   ...       0.06
freq.     776.29  E(vib)   ...       0.05
freq.     776.55  E(vib)   ...       0.05
freq.     784.04  E(vib)   ...       0.05
freq.     811.66  E(vib)   ...       0.05
freq.     812.11  E(vib)   ...       0.05
freq.     899.67  E(vib)   ...       0.03
freq.     914.25  E(vib)   ...       0.03
freq.     945.20  E(vib)   ...       0.03
freq.     945.63  E(vib)   ...       0.03
freq.     946.72  E(vib)   ...       0.03
freq.     947.75  E(vib)   ...       0.03
freq.     971.17  E(vib)   ...       0.03
freq.     981.14  E(vib)   ...       0.02
freq.    1011.71  E(vib)   ...       0.02
freq.    1012.43  E(vib)   ...       0.02
freq.    1041.33  E(vib)   ...       0.02
freq.    1041.77  E(vib)   ...       0.02
freq.    1058.30  E(vib)   ...       0.02
freq.    1058.47  E(vib)   ...       0.02
freq.    1062.10  E(vib)   ...       0.02
freq.    1063.12  E(vib)   ...       0.02
freq.    1065.58  E(vib)   ...       0.02
freq.    1066.12  E(vib)   ...       0.02
freq.    1081.20  E(vib)   ...       0.02
freq.    1094.66  E(vib)   ...       0.02
freq.    1111.67  E(vib)   ...       0.01
freq.    1122.63  E(vib)   ...       0.01
freq.    1147.66  E(vib)   ...       0.01
freq.    1175.71  E(vib)   ...       0.01
freq.    1177.26  E(vib)   ...       0.01
freq.    1246.83  E(vib)   ...       0.01
freq.    1263.46  E(vib)   ...       0.01
freq.    1282.43  E(vib)   ...       0.01
freq.    1283.51  E(vib)   ...       0.01
freq.    1300.58  E(vib)   ...       0.01
freq.    1308.78  E(vib)   ...       0.01
freq.    1332.66  E(vib)   ...       0.01
freq.    1333.17  E(vib)   ...       0.01
freq.    1382.90  E(vib)   ...       0.01
freq.    1395.85  E(vib)   ...       0.00
freq.    1396.47  E(vib)   ...       0.00
freq.    1403.24  E(vib)   ...       0.00
freq.    1407.80  E(vib)   ...       0.00
freq.    1425.71  E(vib)   ...       0.00
freq.    1441.50  E(vib)   ...       0.00
freq.    1444.01  E(vib)   ...       0.00
freq.    1449.58  E(vib)   ...       0.00
freq.    1450.21  E(vib)   ...       0.00
freq.    1452.56  E(vib)   ...       0.00
freq.    1453.45  E(vib)   ...       0.00
freq.    1453.86  E(vib)   ...       0.00
freq.    1455.28  E(vib)   ...       0.00
freq.    1474.79  E(vib)   ...       0.00
freq.    1527.59  E(vib)   ...       0.00
freq.    1535.89  E(vib)   ...       0.00
freq.    1536.33  E(vib)   ...       0.00
freq.    1550.55  E(vib)   ...       0.00
freq.    1644.89  E(vib)   ...       0.00
freq.    1645.39  E(vib)   ...       0.00
freq.    1695.12  E(vib)   ...       0.00
freq.    1695.76  E(vib)   ...       0.00
freq.    1707.62  E(vib)   ...       0.00
freq.    1708.43  E(vib)   ...       0.00
freq.    3067.47  E(vib)   ...       0.00
freq.    3067.81  E(vib)   ...       0.00
freq.    3068.65  E(vib)   ...       0.00
freq.    3069.38  E(vib)   ...       0.00
freq.    3156.17  E(vib)   ...       0.00
freq.    3156.60  E(vib)   ...       0.00
freq.    3156.99  E(vib)   ...       0.00
freq.    3157.63  E(vib)   ...       0.00
freq.    3191.94  E(vib)   ...       0.00
freq.    3192.27  E(vib)   ...       0.00
freq.    3192.86  E(vib)   ...       0.00
freq.    3192.89  E(vib)   ...       0.00
freq.    3214.40  E(vib)   ...       0.00
freq.    3214.42  E(vib)   ...       0.00
freq.    3221.91  E(vib)   ...       0.00
freq.    3222.02  E(vib)   ...       0.00
freq.    3233.64  E(vib)   ...       0.00
freq.    3233.71  E(vib)   ...       0.00
freq.    3296.71  E(vib)   ...       0.00
freq.    3300.90  E(vib)   ...       0.00
freq.    3319.28  E(vib)   ...       0.00

------------
INNER ENERGY
------------

The inner energy is: U= E(el) + E(ZPE) + E(vib) + E(rot) + E(trans)
    E(el)   - is the total energy from the electronic structure calculation
              = E(kin-el) + E(nuc-el) + E(el-el) + E(nuc-nuc)
    E(ZPE)  - the the zero temperature vibrational energy from the frequency calculation
    E(vib)  - the the finite temperature correction to E(ZPE) due to population
              of excited vibrational states
    E(rot)  - is the rotational thermal energy
    E(trans)- is the translational thermal energy

Summary of contributions to the inner energy U:
Electronic energy                ...   -845.24591258 Eh
Zero point energy                ...      0.35945104 Eh     225.56 kcal/mol
Thermal vibrational correction   ...      0.01659631 Eh      10.41 kcal/mol
Thermal rotational correction    ...      0.00141627 Eh       0.89 kcal/mol
Thermal translational correction ...      0.00141627 Eh       0.89 kcal/mol
-----------------------------------------------------------------------
Total thermal energy                   -844.86703269 Eh

Rotational constants in cm-1:     0.023155     0.005945     0.005195

                             ****ORCA TERMINATED NORMALLY****
TOTAL RUN TIME: 0 days 2 hours 15 minutes 37 seconds 693 msec
