   * xtb version 6.6.1 (8d0f1dd) compiled by 'conda@1efc2f54142f' on 2023-08-01
          program call               : xtb struc.xyz --gfn2 --ceasefiles --opt

   ID    Z sym.   atoms
    1    6 C      1, 2, 5-7, 11-14, 27, 28
    2    7 N      3, 4
    3    1 H      8-10, 15-26, 29-34

          :  Hamiltonian                  GFN2-xTB          :
 * total energy  :   -39.7436844 Eh     change       -0.1512035E-10 Eh
 * total energy  :   -39.7618488 Eh     change       -0.1816439E-01 Eh
 * total energy  :   -39.7682435 Eh     change       -0.6394669E-02 Eh
 * total energy  :   -39.7710105 Eh     change       -0.2767058E-02 Eh
 * total energy  :   -39.7724270 Eh     change       -0.1416507E-02 Eh
 * total energy  :   -39.7732046 Eh     change       -0.7776063E-03 Eh
 * total energy  :   -39.7737854 Eh     change       -0.5808083E-03 Eh
 * total energy  :   -39.7743309 Eh     change       -0.5454747E-03 Eh
 * total energy  :   -39.7747902 Eh     change       -0.4592763E-03 Eh
   *** GEOMETRY OPTIMIZATION CONVERGED AFTER 9 ITERATIONS ***

 final structure:
================
34
 xtb: 6.6.1 (8d0f1dd)
C           -2.20359244011503        0.79848655832301        0.96159850527590
C            2.30972464874951       -0.36174755077432       -0.82892944748976
N           -1.06677504259381        0.06755264565051        0.37271793788902
N            0.88183003280186       -0.42675407503738       -0.47071826449591
C           -1.13698385741585       -1.20907877244750       -0.09562678395712
C            0.08303831241374       -1.52223508935218       -0.60869722483241
C            0.15999299442195        0.51829117803209        0.12781793959169
H           -2.01772602410955       -1.81272370726937       -0.03844453100534
H            0.40411570394005       -2.43692046240211       -1.05679086229850
H            0.51953786840547        1.49397140893229        0.37587397597501
C           -1.73493304857449        2.15299212308567        1.48858171532000
C            3.06914951738269       -1.16839844279827        0.22807038863715
C            2.77730762338459        1.09146689629953       -0.83409248199669
C           -3.22337964705940        1.00663935917552       -0.16145856039709
H           -1.45338791793782        2.82260870682910        0.68145450337904
H            2.80892412070516       -2.22352715984515        0.17041173580062
H            2.79587400675351        1.51335078775871        0.16726351562648
H           -2.77937259359840        1.55079706058369       -0.99128555485304
H           -2.55035437144305        2.61586434369831        2.03194500686321
H            2.84092251979268       -0.80480016735648        1.22824644777601
H            3.78848452377876        1.13066626280243       -1.22612412942162
H           -4.05934368865970        1.58950260516531        0.21327575013925
H           -0.90038202188643        2.04393374363705        2.17657627050758
H            4.14223201219947       -1.07439729181878        0.07458566231729
H            2.14896960966853        1.70410052450085       -1.47705988208671
H           -3.60915576990145        0.06054012579464       -0.53315549677388
C           -2.79545535675358       -0.04013660449099        2.10688352536587
C            2.50292777672568       -0.96872684034013       -2.21706017918549
H           -2.55647961483997        0.40122383995176        3.07046143745976
H            1.99067966806750       -0.38129238808111       -2.97867358156984
H           -3.87669709191773       -0.09264390719017        2.02103404781805
H            2.14839771188038       -1.99548203275481       -2.26437830843711
H            3.56427201356383       -0.97979892994836       -2.45981806290326
H           -2.41128108772899       -1.05792983501302        2.11065149206194

          :  Hamiltonian                  GFN2-xTB          :
         :: total energy             -39.774790201221 Eh    ::
         :: gradient norm              0.007125702843 Eh/a0 ::
         :: HOMO-LUMO gap              4.863329758474 eV    ::
         :: SCC energy               -40.384297072060 Eh    ::
         :: -> dispersion             -0.027835468800 Eh    ::
         :: repulsion energy           0.609236415332 Eh    ::

    * Orbital Energies and Occupations

         #    Occupation            Energy/Eh            Energy/eV
      -------------------------------------------------------------
         1        2.0000           -0.8781740             -23.8963
       ...           ...                  ...                  ...
        25        2.0000           -0.6013182             -16.3627
        26        2.0000           -0.5997295             -16.3195
        27        2.0000           -0.5988226             -16.2948
        28        2.0000           -0.5982858             -16.2802
        29        2.0000           -0.5927073             -16.1284
        30        2.0000           -0.5902303             -16.0610
        31        2.0000           -0.5896032             -16.0439
        32        2.0000           -0.5874717             -15.9859
        33        2.0000           -0.5808641             -15.8061
        34        2.0000           -0.5776944             -15.7199
        35        2.0000           -0.5754704             -15.6593
        36        2.0000           -0.5728309             -15.5875
        37        2.0000           -0.5710599             -15.5393 (HOMO)
        38                         -0.3923358             -10.6760 (LUMO)
        39                         -0.3574136              -9.7257
        40                         -0.1963488              -5.3429
        41                         -0.1463650              -3.9828
        42                         -0.0757732              -2.0619
        43                         -0.0635156              -1.7283
        44                         -0.0578090              -1.5731
        45                         -0.0506666              -1.3787
        46                         -0.0476765              -1.2973
        47                         -0.0381478              -1.0381
        48                         -0.0341020              -0.9280
       ...                                ...                  ...
        73                          0.4733912              12.8816
      -------------------------------------------------------------
                  HL-Gap            0.1787241 Eh            4.8633 eV

     #   Z          covCN         q      C6AA      α(0)
     1   6 C        3.835     0.075    19.309     6.252
     2   6 C        3.836     0.075    19.299     6.250
     3   7 N        2.870     0.047    20.414     6.711
     4   7 N        2.868     0.046    20.428     6.713
     5   6 C        3.077    -0.006    28.095     8.690
     6   6 C        3.080    -0.005    28.064     8.685
     7   6 C        3.110     0.050    26.732     8.471
     8   1 H        0.927     0.100     1.784     2.089
     9   1 H        0.927     0.099     1.797     2.096
    10   1 H        0.927     0.112     1.677     2.025
    11   6 C        3.760    -0.133    23.101     6.852
    12   6 C        3.760    -0.127    22.982     6.834
    13   6 C        3.760    -0.133    23.102     6.852
    14   6 C        3.761    -0.127    22.987     6.835
    15   1 H        0.925     0.058     2.219     2.329
    16   1 H        0.925     0.061     2.185     2.312
    17   1 H        0.925     0.058     2.227     2.334
    18   1 H        0.925     0.055     2.253     2.347
    19   1 H        0.925     0.083     1.950     2.184
    20   1 H        0.925     0.054     2.269     2.355
    21   1 H        0.925     0.082     1.957     2.187
    22   1 H        0.925     0.080     1.984     2.203
    23   1 H        0.925     0.056     2.252     2.347
    24   1 H        0.925     0.080     1.983     2.202
    25   1 H        0.925     0.057     2.233     2.337
    26   1 H        0.925     0.061     2.187     2.313
    27   6 C        3.757    -0.134    23.124     6.856
    28   6 C        3.759    -0.129    23.029     6.841
    29   1 H        0.925     0.071     2.073     2.252
    30   1 H        0.925     0.061     2.188     2.313
    31   1 H        0.925     0.076     2.016     2.220
    32   1 H        0.925     0.060     2.201     2.320
    33   1 H        0.925     0.079     1.993     2.208
    34   1 H        0.925     0.057     2.234     2.337

molecular dipole:
                 x           y           z       tot (Debye)
 q only:       -0.065      -0.024       0.014
   full:       -0.058      -0.020       0.011       0.158

           -------------------------------------------------
          | TOTAL ENERGY              -39.774790201221 Eh   |
          | GRADIENT NORM               0.007125702843 Eh/α |
          | HOMO-LUMO GAP               4.863329758474 eV   |
           -------------------------------------------------

 * finished run on 2024/02/12 at 14:13:52.297
