                         Program Version 5.0.4 -  RELEASE  -
|  1> # ORCAForces - ../2023_04/pKa_prediction/extra_carbenes/Water/11+_Water.inp
|  2> # Basic Mode
|  3> #
|  4> ! Opt FREQ wB97X D4 Def2-SVP SlowConv TightSCF DEFGRID2 Def2/J RIJCOSX CPCM(Water)
|  5>
|  6> %maxcore 4500
|  7>
|  8> %PAL NPROCS 4 END
|  9>
| 10> %geom
| 11> Maxiter 150
| 12> END
| 13>
| 14> * xyzfile 1 1 11+.xyz
| 15>
| 16>                          ****END OF INPUT****
 Total Charge           Charge          ....    1
 Multiplicity           Mult            ....    1
 Number of Electrons    NEL             ....   56
Dispersion correction           -0.002060681
FINAL SINGLE POINT ENERGY      -307.411440447961
Dispersion correction            ... Starting D4
Dispersion correction           -0.002068576
FINAL SINGLE POINT ENERGY      -307.411834457058
Dispersion correction            ... Starting D4
Dispersion correction           -0.002067017
FINAL SINGLE POINT ENERGY      -307.411894544349
Dispersion correction            ... Starting D4
FINAL SINGLE POINT ENERGY      -307.411922649788
Dispersion correction           -0.002067534
FINAL SINGLE POINT ENERGY      -307.411927983669
Dispersion correction            ... Starting D4
Dispersion correction           -0.002067987
FINAL SINGLE POINT ENERGY      -307.411932175837
Dispersion correction            ... Starting D4
                    ***********************HURRAY********************

CARTESIAN COORDINATES (ANGSTROEM)
---------------------------------
  C      0.000000   -0.000000    0.663030
  N     -0.008672    1.193350    0.106160
  N      0.008672   -1.193350    0.106160
  C      0.226497    1.490792   -1.304696
  C     -0.226497   -1.490792   -1.304696
  H      0.722268    2.468843   -1.357227
  H     -0.722269   -2.468843   -1.357227
  H      0.895419    0.749044   -1.753175
  H     -0.895418   -0.749043   -1.753175
  H     -0.715601    1.543770   -1.870039
  H      0.715601   -1.543770   -1.870039
  C     -0.238701    2.362357    0.953325
  C      0.238701   -2.362357    0.953325
  H     -0.367192    2.054895    1.998059
  H      0.367192   -2.054895    1.998059
  H      0.616344    3.049633    0.875398
  H     -0.616344   -3.049633    0.875398
  H     -1.148638    2.883510    0.620895
  H      1.148638   -2.883511    0.620895
  H      0.000000    0.000000    1.758295

 Multiplicity           Mult            ....    1
 Number of Electrons    NEL             ....   56
 Basis Dimension        Dim             ....  163

ORBITAL ENERGIES
----------------

  NO   OCC          E(Eh)            E(eV)
   0   2.0000     -14.486092      -394.1866
   1   2.0000     -14.486092      -394.1866
   2   2.0000     -10.400070      -283.0003
   3   2.0000     -10.318740      -280.7872
   4   2.0000     -10.318726      -280.7868
   5   2.0000     -10.317827      -280.7623
   6   2.0000     -10.317812      -280.7619
   7   2.0000      -1.154135       -31.4056
   8   2.0000      -1.090150       -29.6645
   9   2.0000      -0.897927       -24.4338
  10   2.0000      -0.874267       -23.7900
  11   2.0000      -0.857166       -23.3247
  12   2.0000      -0.808139       -21.9906
  13   2.0000      -0.709734       -19.3128
  14   2.0000      -0.656473       -17.8635
  15   2.0000      -0.652176       -17.7466
  16   2.0000      -0.627633       -17.0788
  17   2.0000      -0.590152       -16.0589
  18   2.0000      -0.579830       -15.7780
  19   2.0000      -0.550591       -14.9823
  20   2.0000      -0.533095       -14.5063
  21   2.0000      -0.528708       -14.3869
  22   2.0000      -0.519140       -14.1265
  23   2.0000      -0.517640       -14.0857
  24   2.0000      -0.508977       -13.8500
  25   2.0000      -0.486583       -13.2406
  26   2.0000      -0.470488       -12.8026
  27   2.0000      -0.357890        -9.7387
  28   0.0000       0.059539         1.6201
  29   0.0000       0.134226         3.6525
  30   0.0000       0.163880         4.4594
  31   0.0000       0.164416         4.4740
  32   0.0000       0.187615         5.1053

MULLIKEN ATOMIC CHARGES
-----------------------
   0 C :    0.231270
   1 N :   -0.304074
   2 N :   -0.304073
   3 C :    0.056903
   4 C :    0.056902
   5 H :    0.078105
   6 H :    0.078106
   7 H :    0.084830
   8 H :    0.084830
   9 H :    0.095860
  10 H :    0.095859
  11 C :    0.066982
  12 C :    0.066982
  13 H :    0.082832
  14 H :    0.082832
  15 H :    0.082948
  16 H :    0.082948
  17 H :    0.082160
  18 H :    0.082160
  19 H :    0.115637
Sum of atomic charges:    1.0000000

LOEWDIN ATOMIC CHARGES
----------------------
   0 C :    0.171219
   1 N :    0.014302
   2 N :    0.014302
   3 C :    0.041160
   4 C :    0.041160
   5 H :    0.048681
   6 H :    0.048681
   7 H :    0.046414
   8 H :    0.046414
   9 H :    0.045872
  10 H :    0.045872
  11 C :    0.051000
  12 C :    0.051000
  13 H :    0.046965
  14 H :    0.046965
  15 H :    0.042987
  16 H :    0.042987
  17 H :    0.044358
  18 H :    0.044358
  19 H :    0.065306

  Mayer bond orders larger than 0.100000
B(  0-C ,  1-N ) :   1.4427 B(  0-C ,  2-N ) :   1.4427 B(  0-C , 19-H ) :   0.9558
B(  1-N ,  3-C ) :   0.9154 B(  1-N , 11-C ) :   0.9218 B(  2-N ,  4-C ) :   0.9154
B(  2-N , 12-C ) :   0.9218 B(  3-C ,  5-H ) :   0.9668 B(  3-C ,  7-H ) :   0.9699
B(  3-C ,  9-H ) :   0.9707 B(  4-C ,  6-H ) :   0.9668 B(  4-C ,  8-H ) :   0.9699
B(  4-C , 10-H ) :   0.9707 B( 11-C , 13-H ) :   0.9702 B( 11-C , 15-H ) :   0.9733
B( 11-C , 17-H ) :   0.9731 B( 12-C , 14-H ) :   0.9702 B( 12-C , 16-H ) :   0.9733
B( 12-C , 18-H ) :   0.9731

Dispersion correction           -0.002068105
FINAL SINGLE POINT ENERGY      -307.411933265173

DIPOLE MOMENT
-------------
                                X             Y             Z
Electronic contribution:      0.00000      -0.00000       1.49623
Nuclear contribution   :     -0.00000       0.00000      -1.29131
                        -----------------------------------------
Total Dipole Moment    :     -0.00000      -0.00000       0.20492
                        -----------------------------------------
Magnitude (a.u.)       :      0.20492
Magnitude (Debye)      :      0.52086

Dispersion correction in the Hessian             ... Starting D4

VIBRATIONAL FREQUENCIES
-----------------------

Scaling factor for frequencies =  1.000000000  (already applied!)

   0:         0.00 cm**-1
   1:         0.00 cm**-1
   2:         0.00 cm**-1
   3:         0.00 cm**-1
   4:         0.00 cm**-1
   5:         0.00 cm**-1
   6:        70.78 cm**-1
   7:       121.09 cm**-1
   8:       136.21 cm**-1
   9:       181.90 cm**-1
  10:       196.50 cm**-1
  11:       244.59 cm**-1
  12:       284.10 cm**-1
  13:       316.54 cm**-1
  14:       359.37 cm**-1
  15:       416.40 cm**-1
  16:       445.21 cm**-1
  17:       499.98 cm**-1
  18:       628.03 cm**-1
  19:       893.09 cm**-1
  20:       915.92 cm**-1
  21:      1011.82 cm**-1
  22:      1088.68 cm**-1
  23:      1089.15 cm**-1
  24:      1112.42 cm**-1
  25:      1123.00 cm**-1
  26:      1128.38 cm**-1
  27:      1161.95 cm**-1
  28:      1166.82 cm**-1
  29:      1185.95 cm**-1
  30:      1246.08 cm**-1
  31:      1344.22 cm**-1
  32:      1431.68 cm**-1
  33:      1433.72 cm**-1
  34:      1434.26 cm**-1
  35:      1444.48 cm**-1
  36:      1445.08 cm**-1
  37:      1449.97 cm**-1
  38:      1456.81 cm**-1
  39:      1457.29 cm**-1
  40:      1465.46 cm**-1
  41:      1466.73 cm**-1
  42:      1483.12 cm**-1
  43:      1489.24 cm**-1
  44:      1501.31 cm**-1
  45:      1573.25 cm**-1
  46:      1798.60 cm**-1
  47:      3079.73 cm**-1
  48:      3080.54 cm**-1
  49:      3091.19 cm**-1
  50:      3095.33 cm**-1
  51:      3183.80 cm**-1
  52:      3183.88 cm**-1
  53:      3194.33 cm**-1
  54:      3196.71 cm**-1
  55:      3216.43 cm**-1
  56:      3218.05 cm**-1
  57:      3230.30 cm**-1
  58:      3237.50 cm**-1
  59:      3238.34 cm**-1

IR SPECTRUM
-----------

 Mode   freq       eps      Int      T**2         TX        TY        TZ
       cm**-1   L/(mol*cm) km/mol    a.u.
----------------------------------------------------------------------------
  6:     70.78   0.000008    0.04  0.000034  (-0.000000 -0.000000 -0.005863)
  7:    121.09   0.000417    2.11  0.001075  (-0.028390 -0.016397  0.000000)
  8:    136.21   0.000004    0.02  0.000009  (-0.000000 -0.000000 -0.003062)
  9:    181.90   0.000000    0.00  0.000000  (-0.000000 -0.000000 -0.000235)
 10:    196.50   0.000532    2.69  0.000845  (-0.025028 -0.014770 -0.000000)
 11:    244.59   0.000372    1.88  0.000475  ( 0.021692 -0.002104 -0.000000)
 12:    284.10   0.000001    0.00  0.000001  (-0.000000  0.000000  0.000836)
 13:    316.54   0.000263    1.33  0.000259  (-0.000000  0.000000  0.016091)
 14:    359.37   0.001837    9.28  0.001595  ( 0.037850 -0.012741  0.000000)
 15:    416.40   0.000007    0.03  0.000005  ( 0.000000  0.000000  0.002211)
 16:    445.21   0.007334   37.06  0.005141  (-0.063515  0.033265 -0.000000)
 17:    499.98   0.002306   11.65  0.001439  (-0.037807  0.003104 -0.000000)
 18:    628.03   0.000153    0.77  0.000076  (-0.000000 -0.000000 -0.008708)
 19:    893.09   0.001078    5.45  0.000377  (-0.000000 -0.000000  0.019412)
 20:    915.92   0.003653   18.46  0.001245  (-0.000660  0.035272  0.000000)
 21:   1011.82   0.003252   16.44  0.001003  (-0.011647  0.029451 -0.000000)
 22:   1088.68   0.003899   19.70  0.001117  (-0.000000  0.000001 -0.033429)
 23:   1089.15   0.000775    3.92  0.000222  ( 0.004526 -0.014200 -0.000003)
 24:   1112.42   0.001466    7.41  0.000411  (-0.000000  0.000000  0.020277)
 25:   1123.00   0.002280   11.52  0.000634  ( 0.012050 -0.022097  0.000000)
 26:   1128.38   0.000223    1.13  0.000062  ( 0.000000 -0.000000  0.007860)
 27:   1161.95   0.007756   39.20  0.002083  ( 0.002730  0.045558 -0.000000)
 28:   1166.82   0.000222    1.12  0.000059  (-0.000000  0.000000  0.007698)
 29:   1185.95   0.023376  118.13  0.006151  (-0.002762  0.078380  0.000000)
 30:   1246.08   0.000775    3.92  0.000194  (-0.007605  0.011673 -0.000000)
 31:   1344.22   0.008780   44.37  0.002038  (-0.000000  0.000000 -0.045147)
 32:   1431.68   0.008066   40.76  0.001758  (-0.003177 -0.041810 -0.000000)
 33:   1433.72   0.000000    0.00  0.000000  (-0.000001 -0.000003  0.000112)
 34:   1434.26   0.011816   59.71  0.002571  ( 0.018925  0.047040  0.000000)
 35:   1444.48   0.000542    2.74  0.000117  (-0.000000 -0.000001  0.010817)
 36:   1445.08   0.001169    5.91  0.000252  ( 0.004098  0.015349  0.000001)
 37:   1449.97   0.010995   55.57  0.002366  (-0.019913  0.044384  0.000000)
 38:   1456.81   0.007512   37.96  0.001609  (-0.039330 -0.007893  0.000000)
 39:   1457.29   0.000166    0.84  0.000036  ( 0.000001  0.000000  0.005970)
 40:   1465.46   0.000043    0.22  0.000009  ( 0.000000 -0.000000  0.003018)
 41:   1466.73   0.004339   21.93  0.000923  (-0.000000 -0.000000  0.030385)
 42:   1483.12   0.008226   41.57  0.001731  ( 0.041318 -0.004868  0.000000)
 43:   1489.24   0.001596    8.06  0.000334  ( 0.000000  0.000000 -0.018286)
 44:   1501.31   0.015482   78.24  0.003218  (-0.003207  0.056637  0.000000)
 45:   1573.25   0.008813   44.54  0.001748  (-0.000000 -0.000000  0.041811)
 46:   1798.60   0.228156  1153.01  0.039586  ( 0.003065 -0.198938 -0.000000)
 47:   3079.73   0.009608   48.56  0.000974  ( 0.003176 -0.031041 -0.000001)
 48:   3080.54   0.001640    8.29  0.000166  ( 0.000000 -0.000002  0.012889)
 49:   3091.19   0.002820   14.25  0.000285  ( 0.001772 -0.016781  0.000000)
 50:   3095.33   0.004073   20.58  0.000411  ( 0.000000 -0.000000 -0.020264)
 51:   3183.80   0.000065    0.33  0.000006  ( 0.000009  0.000002  0.002515)
 52:   3183.88   0.003034   15.33  0.000297  ( 0.016890  0.003476 -0.000001)
 53:   3194.33   0.000036    0.18  0.000004  ( 0.000000  0.000000  0.001881)
 54:   3196.71   0.001199    6.06  0.000117  ( 0.009198  0.005694 -0.000000)
 55:   3216.43   0.000811    4.10  0.000079  ( 0.000000  0.000000 -0.008870)
 56:   3218.05   0.000792    4.00  0.000077  ( 0.002280  0.008460  0.000000)
 57:   3230.30   0.000052    0.26  0.000005  ( 0.000000  0.000000 -0.002235)
 58:   3237.50   0.000018    0.09  0.000002  ( 0.000000 -0.000000 -0.001319)
 59:   3238.34   0.000496    2.50  0.000048  ( 0.005795 -0.003765  0.000000)

--------------------------
THERMOCHEMISTRY AT 298.15K
--------------------------

Temperature         ... 298.15 K
Pressure            ... 1.00 atm
Total Mass          ... 101.17 AMU

Throughout the following assumptions are being made:
  (1) The electronic state is orbitally nondegenerate
  (2) There are no thermally accessible electronically excited states
  (3) Hindered rotations indicated by low frequency modes are not
      treated as such but are treated as vibrations and this may
      cause some error
  (4) All equations used are the standard statistical mechanics
      equations for an ideal gas
  (5) All vibrations are strictly harmonic

freq.      70.78  E(vib)   ...       0.50
freq.     121.09  E(vib)   ...       0.44
freq.     136.21  E(vib)   ...       0.42
freq.     181.90  E(vib)   ...       0.37
freq.     196.50  E(vib)   ...       0.36
freq.     244.59  E(vib)   ...       0.31
freq.     284.10  E(vib)   ...       0.28
freq.     316.54  E(vib)   ...       0.25
freq.     359.37  E(vib)   ...       0.22
freq.     416.40  E(vib)   ...       0.18
freq.     445.21  E(vib)   ...       0.17
freq.     499.98  E(vib)   ...       0.14
freq.     628.03  E(vib)   ...       0.09
freq.     893.09  E(vib)   ...       0.03
freq.     915.92  E(vib)   ...       0.03
freq.    1011.82  E(vib)   ...       0.02
freq.    1088.68  E(vib)   ...       0.02
freq.    1089.15  E(vib)   ...       0.02
freq.    1112.42  E(vib)   ...       0.01
freq.    1123.00  E(vib)   ...       0.01
freq.    1128.38  E(vib)   ...       0.01
freq.    1161.95  E(vib)   ...       0.01
freq.    1166.82  E(vib)   ...       0.01
freq.    1185.95  E(vib)   ...       0.01
freq.    1246.08  E(vib)   ...       0.01
freq.    1344.22  E(vib)   ...       0.01
freq.    1431.68  E(vib)   ...       0.00
freq.    1433.72  E(vib)   ...       0.00
freq.    1434.26  E(vib)   ...       0.00
freq.    1444.48  E(vib)   ...       0.00
freq.    1445.08  E(vib)   ...       0.00
freq.    1449.97  E(vib)   ...       0.00
freq.    1456.81  E(vib)   ...       0.00
freq.    1457.29  E(vib)   ...       0.00
freq.    1465.46  E(vib)   ...       0.00
freq.    1466.73  E(vib)   ...       0.00
freq.    1483.12  E(vib)   ...       0.00
freq.    1489.24  E(vib)   ...       0.00
freq.    1501.31  E(vib)   ...       0.00
freq.    1573.25  E(vib)   ...       0.00
freq.    1798.60  E(vib)   ...       0.00
freq.    3079.73  E(vib)   ...       0.00
freq.    3080.54  E(vib)   ...       0.00
freq.    3091.19  E(vib)   ...       0.00
freq.    3095.33  E(vib)   ...       0.00
freq.    3183.80  E(vib)   ...       0.00
freq.    3183.88  E(vib)   ...       0.00
freq.    3194.33  E(vib)   ...       0.00
freq.    3196.71  E(vib)   ...       0.00
freq.    3216.43  E(vib)   ...       0.00
freq.    3218.05  E(vib)   ...       0.00
freq.    3230.30  E(vib)   ...       0.00
freq.    3237.50  E(vib)   ...       0.00
freq.    3238.34  E(vib)   ...       0.00

------------
INNER ENERGY
------------

The inner energy is: U= E(el) + E(ZPE) + E(vib) + E(rot) + E(trans)
    E(el)   - is the total energy from the electronic structure calculation
              = E(kin-el) + E(nuc-el) + E(el-el) + E(nuc-nuc)
    E(ZPE)  - the the zero temperature vibrational energy from the frequency calculation
    E(vib)  - the the finite temperature correction to E(ZPE) due to population
              of excited vibrational states
    E(rot)  - is the rotational thermal energy
    E(trans)- is the translational thermal energy

Summary of contributions to the inner energy U:
Electronic energy                ...   -307.41193327 Eh
Zero point energy                ...      0.18668519 Eh     117.15 kcal/mol
Thermal vibrational correction   ...      0.00635058 Eh       3.99 kcal/mol
Thermal rotational correction    ...      0.00141627 Eh       0.89 kcal/mol
Thermal translational correction ...      0.00141627 Eh       0.89 kcal/mol
-----------------------------------------------------------------------
Total thermal energy                   -307.21606495 Eh

Summary of corrections to the electronic energy:
(perhaps to be used in another calculation)
Total thermal correction                  0.00918313 Eh       5.76 kcal/mol
Non-thermal (ZPE) correction              0.18668519 Eh     117.15 kcal/mol
-----------------------------------------------------------------------
Total correction                          0.19586832 Eh     122.91 kcal/mol

--------
ENTHALPY
--------

The enthalpy is H = U + kB*T
                kB is Boltzmann's constant
Total free energy                 ...   -307.21606495 Eh
Thermal Enthalpy correction       ...      0.00094421 Eh       0.59 kcal/mol
-----------------------------------------------------------------------
Total Enthalpy                    ...   -307.21512074 Eh

Note: Rotational entropy computed according to Herzberg
Infrared and Raman Spectra, Chapter V,1, Van Nostrand Reinhold, 1945
Point Group:  C2, Symmetry Number:   2
Rotational constants in cm-1:     0.155292     0.056269     0.043388

Vibrational entropy computed according to the QRRHO of S. Grimme
Chem.Eur.J. 2012 18 9955

-------
ENTROPY
-------

The entropy contributions are T*S = T*(S(el)+S(vib)+S(rot)+S(trans))
     S(el)   - electronic entropy
     S(vib)  - vibrational entropy
     S(rot)  - rotational entropy
     S(trans)- translational entropy
The entropies will be listed as multiplied by the temperature to get
units of energy

Electronic entropy                ...      0.00000000 Eh      0.00 kcal/mol
Vibrational entropy               ...      0.01101427 Eh      6.91 kcal/mol
Rotational entropy                ...      0.01257532 Eh      7.89 kcal/mol
Translational entropy             ...      0.01888776 Eh     11.85 kcal/mol
-----------------------------------------------------------------------
Final entropy term                ...      0.04247735 Eh     26.65 kcal/mol

In case the symmetry of your molecule has not been determined correctly
or in case you have a reason to use a different symmetry number we print
out the resulting rotational entropy values for sn=1,12 :
 --------------------------------------------------------
|  sn= 1 | S(rot)=       0.01322977 Eh      8.30 kcal/mol|
|  sn= 2 | S(rot)=       0.01257532 Eh      7.89 kcal/mol|
|  sn= 3 | S(rot)=       0.01219248 Eh      7.65 kcal/mol|
|  sn= 4 | S(rot)=       0.01192086 Eh      7.48 kcal/mol|
|  sn= 5 | S(rot)=       0.01171017 Eh      7.35 kcal/mol|
|  sn= 6 | S(rot)=       0.01153803 Eh      7.24 kcal/mol|
|  sn= 7 | S(rot)=       0.01139248 Eh      7.15 kcal/mol|
|  sn= 8 | S(rot)=       0.01126640 Eh      7.07 kcal/mol|
|  sn= 9 | S(rot)=       0.01115519 Eh      7.00 kcal/mol|
|  sn=10 | S(rot)=       0.01105571 Eh      6.94 kcal/mol|
|  sn=11 | S(rot)=       0.01096572 Eh      6.88 kcal/mol|
|  sn=12 | S(rot)=       0.01088357 Eh      6.83 kcal/mol|
 --------------------------------------------------------

                             ****ORCA TERMINATED NORMALLY****
TOTAL RUN TIME: 0 days 0 hours 7 minutes 43 seconds 446 msec
