                         Program Version 5.0.4 -  RELEASE  -
|  1> # ORCA 5.0.4 - /users/bwb16179/postgrad/2024_06/pKa_Reviewer_Comments/Gas_Z=1/4_prot.inp # write input file
|  2> # Basic Mode
|  3> #
|  4> ! Opt Freq wB97X Def2-TZVP D4 SlowConv TightSCF Defgrid2 Def2/J RIJCOSX CPCM(Water)
|  5>
|  6> %PAL NPROCS 16 END
|  7>
|  8> %maxcore 4500
|  9>
| 10> %geom
| 11> Maxiter 150
| 12> END
| 13>
| 14> * xyzfile 1 1 butylamine.xyz
| 15>
| 16>                          ****END OF INPUT****
 Total Charge           Charge          ....    1
 Multiplicity           Mult            ....    1
 Number of Electrons    NEL             ....   42
Dispersion correction           -0.001258279
FINAL SINGLE POINT ENERGY      -214.294319600401
Dispersion correction            ... Starting D4
Dispersion correction           -0.001258242
FINAL SINGLE POINT ENERGY      -214.299350711337
Dispersion correction            ... Starting D4
Dispersion correction           -0.001257803
FINAL SINGLE POINT ENERGY      -214.299709735022
Dispersion correction            ... Starting D4
Dispersion correction           -0.001257541
FINAL SINGLE POINT ENERGY      -214.299833438226
Dispersion correction            ... Starting D4
Dispersion correction           -0.001257546
FINAL SINGLE POINT ENERGY      -214.299836231069
Dispersion correction            ... Starting D4
                    ***********************HURRAY********************

CARTESIAN COORDINATES (ANGSTROEM)
---------------------------------
  C     -3.919547    0.948171   -0.048147
  C     -2.724912    0.009016    0.032542
  H     -4.859700    0.399508    0.027470
  H     -3.923130    1.492899   -0.995469
  H     -3.892704    1.683416    0.759937
  C     -1.400529    0.751841   -0.086297
  H     -2.789478   -0.739930   -0.762867
  H     -2.747223   -0.539037    0.979622
  C     -0.224811   -0.198261   -0.005049
  H     -1.319696    1.497561    0.711630
  H     -1.364898    1.292119   -1.038146
  N      1.064773    0.538447   -0.143700
  H     -0.249674   -0.938132   -0.804408
  H     -0.190181   -0.716022    0.952710
  H      1.121598    1.019876   -1.041219
  H      1.862879   -0.092434   -0.084758
  H      1.172333    1.241284    0.587198

 Multiplicity           Mult            ....    1
 Number of Electrons    NEL             ....   42
 Basis Dimension        Dim             ....  227

ORBITAL ENERGIES
----------------

  NO   OCC          E(Eh)            E(eV)
   0   2.0000     -14.508887      -394.8069
   1   2.0000     -10.314191      -280.6634
   2   2.0000     -10.261905      -279.2406
   3   2.0000     -10.253026      -278.9990
   4   2.0000     -10.239729      -278.6372
   5   2.0000      -1.131113       -30.7791
   6   2.0000      -0.941070       -25.6078
   7   2.0000      -0.866219       -23.5710
   8   2.0000      -0.776487       -21.1293
   9   2.0000      -0.721810       -19.6414
  10   2.0000      -0.696913       -18.9640
  11   2.0000      -0.674348       -18.3499
  12   2.0000      -0.606308       -16.4985
  13   2.0000      -0.592334       -16.1182
  14   2.0000      -0.541078       -14.7235
  15   2.0000      -0.531073       -14.4512
  16   2.0000      -0.499284       -13.5862
  17   2.0000      -0.468985       -12.7617
  18   2.0000      -0.450559       -12.2603
  19   2.0000      -0.443232       -12.0609
  20   2.0000      -0.432579       -11.7711
  21   0.0000       0.105330         2.8662
  22   0.0000       0.125777         3.4226
  23   0.0000       0.150514         4.0957
  24   0.0000       0.151815         4.1311
  25   0.0000       0.163547         4.4503

MULLIKEN ATOMIC CHARGES
-----------------------
   0 C :   -0.379841
   1 C :   -0.191865
   2 H :    0.132641
   3 H :    0.121131
   4 H :    0.121551
   5 C :   -0.232482
   6 H :    0.111732
   7 H :    0.111918
   8 C :   -0.155374
   9 H :    0.130638
  10 H :    0.130629
  11 N :   -0.277647
  12 H :    0.171438
  13 H :    0.172677
  14 H :    0.342191
  15 H :    0.348463
  16 H :    0.342200
Sum of atomic charges:    1.0000000

LOEWDIN ATOMIC CHARGES
----------------------
   0 C :   -0.310963
   1 C :   -0.287394
   2 H :    0.120919
   3 H :    0.120658
   4 H :    0.120646
   5 C :   -0.267660
   6 H :    0.138528
   7 H :    0.138527
   8 C :   -0.241787
   9 H :    0.145631
  10 H :    0.145770
  11 N :    0.196068
  12 H :    0.150164
  13 H :    0.150276
  14 H :    0.226840
  15 H :    0.227214
  16 H :    0.226564

  Mayer bond orders larger than 0.100000
B(  0-C ,  1-C ) :   0.9659 B(  0-C ,  2-H ) :   0.9841 B(  0-C ,  3-H ) :   0.9803
B(  0-C ,  4-H ) :   0.9803 B(  1-C ,  5-C ) :   0.9746 B(  1-C ,  6-H ) :   0.9744
B(  1-C ,  7-H ) :   0.9744 B(  5-C ,  8-C ) :   0.9799 B(  5-C ,  9-H ) :   0.9646
B(  5-C , 10-H ) :   0.9663 B(  8-C , 11-N ) :   0.9131 B(  8-C , 12-H ) :   0.9658
B(  8-C , 13-H ) :   0.9652 B( 11-N , 14-H ) :   0.8704 B( 11-N , 15-H ) :   0.8691
B( 11-N , 16-H ) :   0.8701

Dispersion correction           -0.001257564
FINAL SINGLE POINT ENERGY      -214.299837307166

DIPOLE MOMENT
-------------
                                X             Y             Z
Electronic contribution:      4.87499      -0.37294      -0.09144
Nuclear contribution   :     -0.65790       0.49790      -0.05594
                        -----------------------------------------
Total Dipole Moment    :      4.21708       0.12496      -0.14738
                        -----------------------------------------
Magnitude (a.u.)       :      4.22151
Magnitude (Debye)      :     10.73021

Dispersion correction in the Hessian             ... Starting D4

VIBRATIONAL FREQUENCIES
-----------------------

Scaling factor for frequencies =  1.000000000  (already applied!)

   0:         0.00 cm**-1
   1:         0.00 cm**-1
   2:         0.00 cm**-1
   3:         0.00 cm**-1
   4:         0.00 cm**-1
   5:         0.00 cm**-1
   6:        62.37 cm**-1
   7:       100.75 cm**-1
   8:       169.06 cm**-1
   9:       223.35 cm**-1
  10:       225.37 cm**-1
  11:       398.28 cm**-1
  12:       416.94 cm**-1
  13:       741.52 cm**-1
  14:       792.31 cm**-1
  15:       904.36 cm**-1
  16:       907.39 cm**-1
  17:       954.88 cm**-1
  18:      1012.60 cm**-1
  19:      1048.80 cm**-1
  20:      1073.21 cm**-1
  21:      1102.88 cm**-1
  22:      1193.37 cm**-1
  23:      1219.59 cm**-1
  24:      1300.21 cm**-1
  25:      1317.84 cm**-1
  26:      1339.07 cm**-1
  27:      1357.50 cm**-1
  28:      1397.71 cm**-1
  29:      1413.05 cm**-1
  30:      1441.67 cm**-1
  31:      1473.36 cm**-1
  32:      1481.90 cm**-1
  33:      1483.90 cm**-1
  34:      1495.64 cm**-1
  35:      1506.77 cm**-1
  36:      1531.82 cm**-1
  37:      1641.35 cm**-1
  38:      1646.20 cm**-1
  39:      3054.60 cm**-1
  40:      3058.15 cm**-1
  41:      3060.60 cm**-1
  42:      3089.36 cm**-1
  43:      3108.40 cm**-1
  44:      3119.72 cm**-1
  45:      3131.32 cm**-1
  46:      3141.82 cm**-1
  47:      3180.24 cm**-1
  48:      3471.19 cm**-1
  49:      3546.09 cm**-1
  50:      3556.60 cm**-1

IR SPECTRUM
-----------

 Mode   freq       eps      Int      T**2         TX        TY        TZ
       cm**-1   L/(mol*cm) km/mol    a.u.
----------------------------------------------------------------------------
  6:     62.37   0.000617    3.12  0.003087  (-0.003104 -0.005732 -0.055174)
  7:    100.75   0.001092    5.52  0.003384  ( 0.002306 -0.016052 -0.055864)
  8:    169.06   0.001953    9.87  0.003605  ( 0.029458 -0.051091  0.011250)
  9:    223.35   0.000128    0.65  0.000179  ( 0.007249 -0.011222  0.000862)
 10:    225.37   0.000013    0.07  0.000018  (-0.000442  0.002273  0.003556)
 11:    398.28   0.000695    3.51  0.000544  (-0.023096 -0.003062  0.001234)
 12:    416.94   0.002241   11.32  0.001677  (-0.039383  0.011238 -0.000045)
 13:    741.52   0.003008   15.20  0.001266  (-0.000833 -0.004173 -0.035324)
 14:    792.31   0.000755    3.82  0.000298  (-0.000921 -0.002741 -0.017005)
 15:    904.36   0.003222   16.28  0.001112  (-0.000096  0.010373  0.031690)
 16:    907.39   0.001520    7.68  0.000523  ( 0.005502 -0.020219  0.009152)
 17:    954.88   0.003462   17.49  0.001131  (-0.031394  0.012073 -0.000093)
 18:   1012.60   0.001217    6.15  0.000375  (-0.001796 -0.002350 -0.019137)
 19:   1048.80   0.001200    6.06  0.000357  ( 0.000177  0.018747 -0.002360)
 20:   1073.21   0.001361    6.88  0.000396  ( 0.017137 -0.010086  0.000453)
 21:   1102.88   0.002509   12.68  0.000710  ( 0.026231 -0.004665 -0.000407)
 22:   1193.37   0.004066   20.55  0.001063  ( 0.010172 -0.030869  0.002619)
 23:   1219.59   0.000681    3.44  0.000174  (-0.001195 -0.001368 -0.013073)
 24:   1300.21   0.000797    4.03  0.000191  (-0.002182 -0.001621 -0.013564)
 25:   1317.84   0.000582    2.94  0.000138  (-0.004389  0.010720  0.001896)
 26:   1339.07   0.000004    0.02  0.000001  ( 0.000743  0.000606  0.000204)
 27:   1357.50   0.001741    8.80  0.000400  ( 0.001675  0.003314  0.019656)
 28:   1397.71   0.001048    5.30  0.000234  (-0.008389  0.012750 -0.001044)
 29:   1413.05   0.000226    1.14  0.000050  ( 0.004281 -0.005620  0.000200)
 30:   1441.67   0.004389   22.18  0.000950  (-0.030502 -0.004168  0.001531)
 31:   1473.36   0.000245    1.24  0.000052  (-0.006483 -0.001793  0.002573)
 32:   1481.90   0.001159    5.86  0.000244  ( 0.001353  0.002828 -0.015305)
 33:   1483.90   0.001479    7.47  0.000311  (-0.002340 -0.004922 -0.016772)
 34:   1495.64   0.000870    4.40  0.000181  ( 0.013145  0.002621  0.001342)
 35:   1506.77   0.004320   21.83  0.000895  (-0.011836  0.027368 -0.002363)
 36:   1531.82   0.037303  188.51  0.007599  (-0.072779 -0.047058  0.009385)
 37:   1641.35   0.013449   67.96  0.002557  (-0.017273  0.022020 -0.042116)
 38:   1646.20   0.013526   68.36  0.002564  ( 0.019393 -0.034871 -0.031177)
 39:   3054.60   0.000814    4.11  0.000083  ( 0.008664 -0.002823 -0.000397)
 40:   3058.15   0.007889   39.87  0.000805  (-0.018025  0.021821 -0.002001)
 41:   3060.60   0.014374   72.64  0.001466  ( 0.004410  0.037743 -0.004656)
 42:   3089.36   0.000096    0.48  0.000010  (-0.000036 -0.000185 -0.003105)
 43:   3108.40   0.006812   34.42  0.000684  ( 0.000506  0.002641  0.026012)
 44:   3119.72   0.002945   14.88  0.000295  ( 0.000072  0.017131 -0.001045)
 45:   3131.32   0.017287   87.36  0.001723  ( 0.000889  0.004684  0.041232)
 46:   3141.82   0.009714   49.09  0.000965  (-0.020566 -0.023065  0.003156)
 47:   3180.24   0.002418   12.22  0.000237  (-0.000509 -0.001351 -0.015335)
 48:   3471.19   0.012260   61.96  0.001102  ( 0.028521  0.016753 -0.002845)
 49:   3546.09   0.028397  143.51  0.002499  (-0.000173 -0.007155 -0.049475)
 50:   3556.60   0.029576  149.47  0.002595  (-0.028216  0.041984 -0.006026)

--------------------------
THERMOCHEMISTRY AT 298.15K
--------------------------

Temperature         ... 298.15 K
Pressure            ... 1.00 atm
Total Mass          ... 74.15 AMU

Throughout the following assumptions are being made:
  (1) The electronic state is orbitally nondegenerate
  (2) There are no thermally accessible electronically excited states
  (3) Hindered rotations indicated by low frequency modes are not
      treated as such but are treated as vibrations and this may
      cause some error
  (4) All equations used are the standard statistical mechanics
      equations for an ideal gas
  (5) All vibrations are strictly harmonic

freq.      62.37  E(vib)   ...       0.51
freq.     100.75  E(vib)   ...       0.46
freq.     169.06  E(vib)   ...       0.38
freq.     223.35  E(vib)   ...       0.33
freq.     225.37  E(vib)   ...       0.33
freq.     398.28  E(vib)   ...       0.20
freq.     416.94  E(vib)   ...       0.18
freq.     741.52  E(vib)   ...       0.06
freq.     792.31  E(vib)   ...       0.05
freq.     904.36  E(vib)   ...       0.03
freq.     907.39  E(vib)   ...       0.03
freq.     954.88  E(vib)   ...       0.03
freq.    1012.60  E(vib)   ...       0.02
freq.    1048.80  E(vib)   ...       0.02
freq.    1073.21  E(vib)   ...       0.02
freq.    1102.88  E(vib)   ...       0.02
freq.    1193.37  E(vib)   ...       0.01
freq.    1219.59  E(vib)   ...       0.01
freq.    1300.21  E(vib)   ...       0.01
freq.    1317.84  E(vib)   ...       0.01
freq.    1339.07  E(vib)   ...       0.01
freq.    1357.50  E(vib)   ...       0.01
freq.    1397.71  E(vib)   ...       0.00
freq.    1413.05  E(vib)   ...       0.00
freq.    1441.67  E(vib)   ...       0.00
freq.    1473.36  E(vib)   ...       0.00
freq.    1481.90  E(vib)   ...       0.00
freq.    1483.90  E(vib)   ...       0.00
freq.    1495.64  E(vib)   ...       0.00
freq.    1506.77  E(vib)   ...       0.00
freq.    1531.82  E(vib)   ...       0.00
freq.    1641.35  E(vib)   ...       0.00
freq.    1646.20  E(vib)   ...       0.00
freq.    3054.60  E(vib)   ...       0.00
freq.    3058.15  E(vib)   ...       0.00
freq.    3060.60  E(vib)   ...       0.00
freq.    3089.36  E(vib)   ...       0.00
freq.    3108.40  E(vib)   ...       0.00
freq.    3119.72  E(vib)   ...       0.00
freq.    3131.32  E(vib)   ...       0.00
freq.    3141.82  E(vib)   ...       0.00
freq.    3180.24  E(vib)   ...       0.00
freq.    3471.19  E(vib)   ...       0.00
freq.    3546.09  E(vib)   ...       0.00
freq.    3556.60  E(vib)   ...       0.00

------------
INNER ENERGY
------------

The inner energy is: U= E(el) + E(ZPE) + E(vib) + E(rot) + E(trans)
    E(el)   - is the total energy from the electronic structure calculation
              = E(kin-el) + E(nuc-el) + E(el-el) + E(nuc-nuc)
    E(ZPE)  - the the zero temperature vibrational energy from the frequency calculation
    E(vib)  - the the finite temperature correction to E(ZPE) due to population
              of excited vibrational states
    E(rot)  - is the rotational thermal energy
    E(trans)- is the translational thermal energy

Summary of contributions to the inner energy U:
Electronic energy                ...   -214.29983731 Eh
Zero point energy                ...      0.16606275 Eh     104.21 kcal/mol
Thermal vibrational correction   ...      0.00437889 Eh       2.75 kcal/mol
Thermal rotational correction    ...      0.00141627 Eh       0.89 kcal/mol
Thermal translational correction ...      0.00141627 Eh       0.89 kcal/mol
-----------------------------------------------------------------------
Total thermal energy                   -214.12656313 Eh

Summary of corrections to the electronic energy:
(perhaps to be used in another calculation)
Total thermal correction                  0.00721143 Eh       4.53 kcal/mol
Non-thermal (ZPE) correction              0.16606275 Eh     104.21 kcal/mol
-----------------------------------------------------------------------
Total correction                          0.17327418 Eh     108.73 kcal/mol

--------
ENTHALPY
--------

The enthalpy is H = U + kB*T
                kB is Boltzmann's constant
Total free energy                 ...   -214.12656313 Eh
Thermal Enthalpy correction       ...      0.00094421 Eh       0.59 kcal/mol
-----------------------------------------------------------------------
Total Enthalpy                    ...   -214.12561892 Eh

Note: Only C1 symmetry has been detected, increase convergence thresholds
      if your molecule has a higher symmetry. Symmetry factor of 1.0 is
      used for the rotational entropy correction.

Note: Rotational entropy computed according to Herzberg
Infrared and Raman Spectra, Chapter V,1, Van Nostrand Reinhold, 1945
Point Group:  C1, Symmetry Number:   1
Rotational constants in cm-1:     0.572748     0.064048     0.060778

Vibrational entropy computed according to the QRRHO of S. Grimme
Chem.Eur.J. 2012 18 9955

-------
ENTROPY
-------

The entropy contributions are T*S = T*(S(el)+S(vib)+S(rot)+S(trans))
     S(el)   - electronic entropy
     S(vib)  - vibrational entropy
     S(rot)  - rotational entropy
     S(trans)- translational entropy
The entropies will be listed as multiplied by the temperature to get
units of energy

Electronic entropy                ...      0.00000000 Eh      0.00 kcal/mol
Vibrational entropy               ...      0.00771968 Eh      4.84 kcal/mol
Rotational entropy                ...      0.01239338 Eh      7.78 kcal/mol
Translational entropy             ...      0.01844761 Eh     11.58 kcal/mol
-----------------------------------------------------------------------
Final entropy term                ...      0.03856067 Eh     24.20 kcal/mol

In case the symmetry of your molecule has not been determined correctly
or in case you have a reason to use a different symmetry number we print
out the resulting rotational entropy values for sn=1,12 :
 --------------------------------------------------------
|  sn= 1 | S(rot)=       0.01239338 Eh      7.78 kcal/mol|
|  sn= 2 | S(rot)=       0.01173892 Eh      7.37 kcal/mol|
|  sn= 3 | S(rot)=       0.01135609 Eh      7.13 kcal/mol|
|  sn= 4 | S(rot)=       0.01108447 Eh      6.96 kcal/mol|
|  sn= 5 | S(rot)=       0.01087378 Eh      6.82 kcal/mol|
|  sn= 6 | S(rot)=       0.01070163 Eh      6.72 kcal/mol|
|  sn= 7 | S(rot)=       0.01055609 Eh      6.62 kcal/mol|
|  sn= 8 | S(rot)=       0.01043001 Eh      6.54 kcal/mol|
|  sn= 9 | S(rot)=       0.01031880 Eh      6.48 kcal/mol|
|  sn=10 | S(rot)=       0.01021932 Eh      6.41 kcal/mol|
|  sn=11 | S(rot)=       0.01012933 Eh      6.36 kcal/mol|
|  sn=12 | S(rot)=       0.01004718 Eh      6.30 kcal/mol|
 --------------------------------------------------------

-------------------
GIBBS FREE ENERGY
-------------------

                             ****ORCA TERMINATED NORMALLY****
TOTAL RUN TIME: 0 days 0 hours 3 minutes 29 seconds 333 msec
