                         Program Version 5.0.4 -  RELEASE  -
|  1> # ORCA 5.0.4 - /users/bwb16179/postgrad/2024_02/lysine/DFT/lys_prot_aq.inp # write input file
|  2> # Basic Mode
|  3> #
|  4> ! Opt Freq wB97X Def2-SVP D4 SlowConv TightSCF Defgrid2 Def2/J RIJCOSX CPCM(Water)
|  5>
|  6>
|  7>
|  8> %maxcore 4500
|  9>
| 10> %geom
| 11> Maxiter 150
| 12> END
| 13>
| 14> * xyzfile 1 1 lys_prot_aq.xyz
| 15>
| 16>                          ****END OF INPUT****
 Total Charge           Charge          ....    1
 Multiplicity           Mult            ....    1
 Number of Electrons    NEL             ....   34
Dispersion correction           -0.000862302
FINAL SINGLE POINT ENERGY      -174.788109232705
Dispersion correction            ... Starting D4
Dispersion correction           -0.000861434
FINAL SINGLE POINT ENERGY      -174.790863345850
Dispersion correction            ... Starting D4
Dispersion correction           -0.000860966
FINAL SINGLE POINT ENERGY      -174.791232627589
Dispersion correction            ... Starting D4
Dispersion correction           -0.000860796
FINAL SINGLE POINT ENERGY      -174.791331959173
Dispersion correction            ... Starting D4
Dispersion correction           -0.000860818
FINAL SINGLE POINT ENERGY      -174.791334025173
Dispersion correction            ... Starting D4
                    ***********************HURRAY********************

CARTESIAN COORDINATES (ANGSTROEM)
---------------------------------
  C     -1.657988   -1.398426    0.012799
  C     -0.868708   -0.109128    0.199093
  H     -1.017199   -2.275331    0.184086
  H     -2.065216   -1.471375   -1.008035
  H     -2.502500   -1.454029    0.717739
  C     -1.735974    1.112681   -0.043617
  H     -0.010969   -0.086382   -0.494658
  H     -0.453240   -0.061300    1.219932
  N     -0.958418    2.369990    0.125079
  H     -2.576513    1.160657    0.663077
  H     -2.142142    1.124168   -1.064748
  H     -0.568548    2.456816    1.071516
  H     -1.534702    3.202956   -0.039813
  H     -0.167743    2.420792   -0.528490

 Multiplicity           Mult            ....    1
 Number of Electrons    NEL             ....   34
 Basis Dimension        Dim             ....  106

ORBITAL ENERGIES
----------------

  NO   OCC          E(Eh)            E(eV)
   0   2.0000     -14.529044      -395.3554
   1   2.0000     -10.331800      -281.1426
   2   2.0000     -10.282574      -279.8031
   3   2.0000     -10.267621      -279.3962
   4   2.0000      -1.122594       -30.5473
   5   2.0000      -0.922879       -25.1128
   6   2.0000      -0.820047       -22.3146
   7   2.0000      -0.735624       -20.0173
   8   2.0000      -0.696031       -18.9400
   9   2.0000      -0.673731       -18.3331
  10   2.0000      -0.616312       -16.7707
  11   2.0000      -0.580001       -15.7826
  12   2.0000      -0.528492       -14.3810
  13   2.0000      -0.501695       -13.6518
  14   2.0000      -0.480864       -13.0850
  15   2.0000      -0.457441       -12.4476
  16   2.0000      -0.443747       -12.0750
  17   0.0000       0.126163         3.4331
  18   0.0000       0.152723         4.1558
  19   0.0000       0.172335         4.6895
  20   0.0000       0.179336         4.8800
  21   0.0000       0.215186         5.8555

MULLIKEN ATOMIC CHARGES
-----------------------
   0 C :   -0.057227
   1 C :   -0.107976
   2 H :    0.051071
   3 H :    0.043600
   4 H :    0.043635
   5 C :    0.025818
   6 H :    0.055989
   7 H :    0.056346
   8 N :    0.021424
   9 H :    0.089952
  10 H :    0.089798
  11 H :    0.228017
  12 H :    0.231995
  13 H :    0.227557
Sum of atomic charges:    1.0000000

LOEWDIN ATOMIC CHARGES
----------------------
   0 C :   -0.058894
   1 C :   -0.049788
   2 H :    0.036214
   3 H :    0.031903
   4 H :    0.031861
   5 C :    0.057694
   6 H :    0.037061
   7 H :    0.037174
   8 N :    0.310421
   9 H :    0.050728
  10 H :    0.050713
  11 H :    0.153912
  12 H :    0.157293
  13 H :    0.153707

  Mayer bond orders larger than 0.100000
B(  0-C ,  1-C ) :   1.0917 B(  0-C ,  2-H ) :   0.9727 B(  0-C ,  3-H ) :   0.9750
B(  0-C ,  4-H ) :   0.9750 B(  1-C ,  5-C ) :   1.0638 B(  1-C ,  6-H ) :   0.9528
B(  1-C ,  7-H ) :   0.9526 B(  5-C ,  8-N ) :   0.9614 B(  5-C ,  9-H ) :   0.9560
B(  5-C , 10-H ) :   0.9562 B(  8-N , 11-H ) :   0.9285 B(  8-N , 12-H ) :   0.9254
B(  8-N , 13-H ) :   0.9287

Dispersion correction           -0.000860828
FINAL SINGLE POINT ENERGY      -174.791334261029

DIPOLE MOMENT
-------------
                                X             Y             Z
Electronic contribution:      0.65407       3.59885       0.10697
Nuclear contribution   :     -0.09530      -0.51258      -0.02582
                        -----------------------------------------
Total Dipole Moment    :      0.55877       3.08627       0.08115
                        -----------------------------------------
Magnitude (a.u.)       :      3.13749
Magnitude (Debye)      :      7.97487

Dispersion correction in the Hessian             ... Starting D4

VIBRATIONAL FREQUENCIES
-----------------------

Scaling factor for frequencies =  1.000000000  (already applied!)

   0:         0.00 cm**-1
   1:         0.00 cm**-1
   2:         0.00 cm**-1
   3:         0.00 cm**-1
   4:         0.00 cm**-1
   5:         0.00 cm**-1
   6:       115.55 cm**-1
   7:       219.16 cm**-1
   8:       269.97 cm**-1
   9:       295.99 cm**-1
  10:       443.99 cm**-1
  11:       757.05 cm**-1
  12:       855.20 cm**-1
  13:       885.54 cm**-1
  14:       983.77 cm**-1
  15:      1009.65 cm**-1
  16:      1047.87 cm**-1
  17:      1093.41 cm**-1
  18:      1198.82 cm**-1
  19:      1213.70 cm**-1
  20:      1313.24 cm**-1
  21:      1343.56 cm**-1
  22:      1348.23 cm**-1
  23:      1403.60 cm**-1
  24:      1437.55 cm**-1
  25:      1452.77 cm**-1
  26:      1458.89 cm**-1
  27:      1470.15 cm**-1
  28:      1486.06 cm**-1
  29:      1516.79 cm**-1
  30:      1612.69 cm**-1
  31:      1620.10 cm**-1
  32:      3066.50 cm**-1
  33:      3072.57 cm**-1
  34:      3123.79 cm**-1
  35:      3128.46 cm**-1
  36:      3162.58 cm**-1
  37:      3176.68 cm**-1
  38:      3196.79 cm**-1
  39:      3469.07 cm**-1
  40:      3554.28 cm**-1
  41:      3568.16 cm**-1

IR SPECTRUM
-----------

 Mode   freq       eps      Int      T**2         TX        TY        TZ
       cm**-1   L/(mol*cm) km/mol    a.u.
----------------------------------------------------------------------------
  6:    115.55   0.001217    6.15  0.003288  (-0.013319  0.000496  0.055767)
  7:    219.16   0.000184    0.93  0.000262  ( 0.010192 -0.002908 -0.012230)
  8:    269.97   0.001406    7.11  0.001626  (-0.034286  0.018115 -0.011045)
  9:    295.99   0.000064    0.32  0.000068  ( 0.006452 -0.002281  0.004551)
 10:    443.99   0.002216   11.20  0.001558  ( 0.003785 -0.039265  0.001210)
 11:    757.05   0.003389   17.13  0.001397  (-0.009023  0.000377  0.036267)
 12:    855.20   0.000959    4.85  0.000350  ( 0.005314 -0.000509 -0.017927)
 13:    885.54   0.000096    0.49  0.000034  (-0.001929  0.005490 -0.000284)
 14:    983.77   0.004460   22.54  0.001415  (-0.011190  0.000973  0.035896)
 15:   1009.65   0.008243   41.66  0.002548  ( 0.032241 -0.037497  0.010111)
 16:   1047.87   0.001608    8.13  0.000479  ( 0.021146  0.000859  0.005572)
 17:   1093.41   0.000924    4.67  0.000264  (-0.004272 -0.015645 -0.000748)
 18:   1198.82   0.001964    9.93  0.000511  ( 0.019519 -0.010333  0.004845)
 19:   1213.70   0.000380    1.92  0.000098  ( 0.002771  0.000054 -0.009482)
 20:   1313.24   0.000524    2.65  0.000125  ( 0.003123  0.000194 -0.010711)
 21:   1343.56   0.001366    6.90  0.000317  (-0.015319  0.009079  0.000455)
 22:   1348.23   0.002503   12.65  0.000579  (-0.003713 -0.001731  0.023719)
 23:   1403.60   0.001076    5.44  0.000239  ( 0.000393  0.015458 -0.000274)
 24:   1437.55   0.000721    3.64  0.000157  (-0.005572 -0.011092 -0.001571)
 25:   1452.77   0.001309    6.62  0.000281  ( 0.002472 -0.013074  0.010209)
 26:   1458.89   0.001773    8.96  0.000379  ( 0.006509 -0.004366 -0.017830)
 27:   1470.15   0.000377    1.91  0.000080  ( 0.007219  0.002352  0.004730)
 28:   1486.06   0.004331   21.89  0.000910  (-0.024784  0.016192 -0.005757)
 29:   1516.79   0.036023  182.04  0.007411  (-0.044445 -0.073151 -0.009205)
 30:   1612.69   0.013017   65.78  0.002519  ( 0.003494 -0.009950  0.049067)
 31:   1620.10   0.011671   58.98  0.002248  (-0.037713  0.026765  0.010462)
 32:   3066.50   0.006309   31.89  0.000642  (-0.017280 -0.018157 -0.003713)
 33:   3072.57   0.003561   17.99  0.000362  (-0.018587 -0.001889 -0.003545)
 34:   3123.79   0.001878    9.49  0.000188  ( 0.013298  0.000237  0.003272)
 35:   3128.46   0.001926    9.73  0.000192  ( 0.002731 -0.000461 -0.013582)
 36:   3162.58   0.006606   33.38  0.000652  ( 0.006781 -0.000796 -0.024601)
 37:   3176.68   0.004120   20.82  0.000405  ( 0.016092 -0.010960  0.005066)
 38:   3196.79   0.001207    6.10  0.000118  (-0.002200  0.000144  0.010629)
 39:   3469.07   0.015514   78.40  0.001396  ( 0.022196  0.029943  0.002524)
 40:   3554.28   0.035940  181.63  0.003156  (-0.019766  0.008171  0.051943)
 41:   3568.16   0.037990  191.99  0.003323  ( 0.041642 -0.033891  0.020974)

--------------------------
THERMOCHEMISTRY AT 298.15K
--------------------------

Temperature         ... 298.15 K
Pressure            ... 1.00 atm
Total Mass          ... 60.12 AMU

Throughout the following assumptions are being made:
  (1) The electronic state is orbitally nondegenerate
  (2) There are no thermally accessible electronically excited states
  (3) Hindered rotations indicated by low frequency modes are not
      treated as such but are treated as vibrations and this may
      cause some error
  (4) All equations used are the standard statistical mechanics
      equations for an ideal gas
  (5) All vibrations are strictly harmonic

freq.     115.55  E(vib)   ...       0.44
freq.     219.16  E(vib)   ...       0.33
freq.     269.97  E(vib)   ...       0.29
freq.     295.99  E(vib)   ...       0.27
freq.     443.99  E(vib)   ...       0.17
freq.     757.05  E(vib)   ...       0.06
freq.     855.20  E(vib)   ...       0.04
freq.     885.54  E(vib)   ...       0.04
freq.     983.77  E(vib)   ...       0.02
freq.    1009.65  E(vib)   ...       0.02
freq.    1047.87  E(vib)   ...       0.02
freq.    1093.41  E(vib)   ...       0.02
freq.    1198.82  E(vib)   ...       0.01
freq.    1213.70  E(vib)   ...       0.01
freq.    1313.24  E(vib)   ...       0.01
freq.    1343.56  E(vib)   ...       0.01
freq.    1348.23  E(vib)   ...       0.01
freq.    1403.60  E(vib)   ...       0.00
freq.    1437.55  E(vib)   ...       0.00
freq.    1452.77  E(vib)   ...       0.00
freq.    1458.89  E(vib)   ...       0.00
freq.    1470.15  E(vib)   ...       0.00
freq.    1486.06  E(vib)   ...       0.00
freq.    1516.79  E(vib)   ...       0.00
freq.    1612.69  E(vib)   ...       0.00
freq.    1620.10  E(vib)   ...       0.00
freq.    3066.50  E(vib)   ...       0.00
freq.    3072.57  E(vib)   ...       0.00
freq.    3123.79  E(vib)   ...       0.00
freq.    3128.46  E(vib)   ...       0.00
freq.    3162.58  E(vib)   ...       0.00
freq.    3176.68  E(vib)   ...       0.00
freq.    3196.79  E(vib)   ...       0.00
freq.    3469.07  E(vib)   ...       0.00
freq.    3554.28  E(vib)   ...       0.00
freq.    3568.16  E(vib)   ...       0.00

------------
INNER ENERGY
------------

The inner energy is: U= E(el) + E(ZPE) + E(vib) + E(rot) + E(trans)
    E(el)   - is the total energy from the electronic structure calculation
              = E(kin-el) + E(nuc-el) + E(el-el) + E(nuc-nuc)
    E(ZPE)  - the the zero temperature vibrational energy from the frequency calculation
    E(vib)  - the the finite temperature correction to E(ZPE) due to population
              of excited vibrational states
    E(rot)  - is the rotational thermal energy
    E(trans)- is the translational thermal energy

Summary of contributions to the inner energy U:
Electronic energy                ...   -174.79133426 Eh
Zero point energy                ...      0.13753791 Eh      86.31 kcal/mol
Thermal vibrational correction   ...      0.00284231 Eh       1.78 kcal/mol
Thermal rotational correction    ...      0.00141627 Eh       0.89 kcal/mol
Thermal translational correction ...      0.00141627 Eh       0.89 kcal/mol
-----------------------------------------------------------------------
Total thermal energy                   -174.64812150 Eh

Summary of corrections to the electronic energy:
(perhaps to be used in another calculation)
Total thermal correction                  0.00567485 Eh       3.56 kcal/mol
Non-thermal (ZPE) correction              0.13753791 Eh      86.31 kcal/mol
-----------------------------------------------------------------------
Total correction                          0.14321276 Eh      89.87 kcal/mol

--------
ENTHALPY
--------

The enthalpy is H = U + kB*T
                kB is Boltzmann's constant
Total free energy                 ...   -174.64812150 Eh
Thermal Enthalpy correction       ...      0.00094421 Eh       0.59 kcal/mol
-----------------------------------------------------------------------
Total Enthalpy                    ...   -174.64717729 Eh

Note: Only C1 symmetry has been detected, increase convergence thresholds
      if your molecule has a higher symmetry. Symmetry factor of 1.0 is
      used for the rotational entropy correction.

Note: Rotational entropy computed according to Herzberg
Infrared and Raman Spectra, Chapter V,1, Van Nostrand Reinhold, 1945
Point Group:  C1, Symmetry Number:   1
Rotational constants in cm-1:     0.785270     0.119657     0.112349

Vibrational entropy computed according to the QRRHO of S. Grimme
Chem.Eur.J. 2012 18 9955

-------
ENTROPY
-------

The entropy contributions are T*S = T*(S(el)+S(vib)+S(rot)+S(trans))
     S(el)   - electronic entropy
     S(vib)  - vibrational entropy
     S(rot)  - rotational entropy
     S(trans)- translational entropy
The entropies will be listed as multiplied by the temperature to get
units of energy

Electronic entropy                ...      0.00000000 Eh      0.00 kcal/mol
Vibrational entropy               ...      0.00474890 Eh      2.98 kcal/mol
Rotational entropy                ...      0.01165929 Eh      7.32 kcal/mol
Translational entropy             ...      0.01815060 Eh     11.39 kcal/mol
-----------------------------------------------------------------------
Final entropy term                ...      0.03455879 Eh     21.69 kcal/mol

In case the symmetry of your molecule has not been determined correctly
or in case you have a reason to use a different symmetry number we print
out the resulting rotational entropy values for sn=1,12 :
 --------------------------------------------------------
|  sn= 1 | S(rot)=       0.01165929 Eh      7.32 kcal/mol|
|  sn= 2 | S(rot)=       0.01100484 Eh      6.91 kcal/mol|
|  sn= 3 | S(rot)=       0.01062200 Eh      6.67 kcal/mol|
|  sn= 4 | S(rot)=       0.01035038 Eh      6.49 kcal/mol|
|  sn= 5 | S(rot)=       0.01013969 Eh      6.36 kcal/mol|
|  sn= 6 | S(rot)=       0.00996755 Eh      6.25 kcal/mol|
|  sn= 7 | S(rot)=       0.00982200 Eh      6.16 kcal/mol|
|  sn= 8 | S(rot)=       0.00969592 Eh      6.08 kcal/mol|
|  sn= 9 | S(rot)=       0.00958472 Eh      6.01 kcal/mol|
|  sn=10 | S(rot)=       0.00948524 Eh      5.95 kcal/mol|
|  sn=11 | S(rot)=       0.00939525 Eh      5.90 kcal/mol|
|  sn=12 | S(rot)=       0.00931309 Eh      5.84 kcal/mol|
 --------------------------------------------------------

-------------------
GIBBS FREE ENERGY
-------------------

The Gibbs free energy is G = H - T*S

Total enthalpy                    ...   -174.64717729 Eh
Total entropy correction          ...     -0.03455879 Eh    -21.69 kcal/mol
-----------------------------------------------------------------------
Final Gibbs free energy         ...   -174.68173608 Eh

For completeness - the Gibbs free energy minus the electronic energy

                             ****ORCA TERMINATED NORMALLY****
TOTAL RUN TIME: 0 days 0 hours 8 minutes 7 seconds 824 msec
